 Entering Gaussian System, Link 0=g16
 Initial command:
 /apps/gaussian/g16c01/g16/l1.exe "/jobfs/121947964.gadi-pbs/Gau-3008895.inp" -scrdir="/jobfs/121947964.gadi-pbs/"
 Entering Link 1 = /apps/gaussian/g16c01/g16/l1.exe PID=   3008896.
  
 Copyright (c) 1988-2019, Gaussian, Inc.  All Rights Reserved.
  
 This is part of the Gaussian(R) 16 program.  It is based on
 the Gaussian(R) 09 system (copyright 2009, Gaussian, Inc.),
 the Gaussian(R) 03 system (copyright 2003, Gaussian, Inc.),
 the Gaussian(R) 98 system (copyright 1998, Gaussian, Inc.),
 the Gaussian(R) 94 system (copyright 1995, Gaussian, Inc.),
 the Gaussian 92(TM) system (copyright 1992, Gaussian, Inc.),
 the Gaussian 90(TM) system (copyright 1990, Gaussian, Inc.),
 the Gaussian 88(TM) system (copyright 1988, Gaussian, Inc.),
 the Gaussian 86(TM) system (copyright 1986, Carnegie Mellon
 University), and the Gaussian 82(TM) system (copyright 1983,
 Carnegie Mellon University). Gaussian is a federally registered
 trademark of Gaussian, Inc.
  
 This software contains proprietary and confidential information,
 including trade secrets, belonging to Gaussian, Inc.
  
 This software is provided under written license and may be
 used, copied, transmitted, or stored only in accord with that
 written license.
  
 The following legend is applicable only to US Government
 contracts under FAR:
  
                    RESTRICTED RIGHTS LEGEND
  
 Use, reproduction and disclosure by the US Government is
 subject to restrictions as set forth in subparagraphs (a)
 and (c) of the Commercial Computer Software - Restricted
 Rights clause in FAR 52.227-19.
  
 Gaussian, Inc.
 340 Quinnipiac St., Bldg. 40, Wallingford CT 06492
  
  
 ---------------------------------------------------------------
 Warning -- This program may not be used in any manner that
 competes with the business of Gaussian, Inc. or will provide
 assistance to any competitor of Gaussian, Inc.  The licensee
 of this program is prohibited from giving any competitor of
 Gaussian, Inc. access to this program.  By using this program,
 the user acknowledges that Gaussian, Inc. is engaged in the
 business of creating and licensing software in the field of
 computational chemistry and represents and warrants to the
 licensee that it is not a competitor of Gaussian, Inc. and that
 it will not use this program in any manner prohibited above.
 ---------------------------------------------------------------
  

 Cite this work as:
 Gaussian 16, Revision C.01,
 M. J. Frisch, G. W. Trucks, H. B. Schlegel, G. E. Scuseria, 
 M. A. Robb, J. R. Cheeseman, G. Scalmani, V. Barone, 
 G. A. Petersson, H. Nakatsuji, X. Li, M. Caricato, A. V. Marenich, 
 J. Bloino, B. G. Janesko, R. Gomperts, B. Mennucci, H. P. Hratchian, 
 J. V. Ortiz, A. F. Izmaylov, J. L. Sonnenberg, D. Williams-Young, 
 F. Ding, F. Lipparini, F. Egidi, J. Goings, B. Peng, A. Petrone, 
 T. Henderson, D. Ranasinghe, V. G. Zakrzewski, J. Gao, N. Rega, 
 G. Zheng, W. Liang, M. Hada, M. Ehara, K. Toyota, R. Fukuda, 
 J. Hasegawa, M. Ishida, T. Nakajima, Y. Honda, O. Kitao, H. Nakai, 
 T. Vreven, K. Throssell, J. A. Montgomery, Jr., J. E. Peralta, 
 F. Ogliaro, M. J. Bearpark, J. J. Heyd, E. N. Brothers, K. N. Kudin, 
 V. N. Staroverov, T. A. Keith, R. Kobayashi, J. Normand, 
 K. Raghavachari, A. P. Rendell, J. C. Burant, S. S. Iyengar, 
 J. Tomasi, M. Cossi, J. M. Millam, M. Klene, C. Adamo, R. Cammi, 
 J. W. Ochterski, R. L. Martin, K. Morokuma, O. Farkas, 
 J. B. Foresman, and D. J. Fox, Gaussian, Inc., Wallingford CT, 2019.
 
 ******************************************
 Gaussian 16:  ES64L-G16RevC.01  3-Jul-2019
                29-Jul-2024 
 ******************************************
 %chk=gasphase_globalmin_actual_badimer.chk
 %nprocshared=48
 Will use up to   48 processors via shared memory.
 %mem=60000MB
 ----------------------------------------------------------------------
 #UM06/Gen Opt Freq(noraman) INT(grid=ultrafine) EmpiricalDispersion=GD
 3 SCF=XQC Pop=NPA Pseudo=read
 ----------------------------------------------------------------------
 1/18=20,19=15,26=4,38=1/1,3;
 2/9=110,12=2,17=6,18=5,40=1/2;
 3/5=7,11=2,16=1,17=8,25=1,30=1,71=1,74=-54,75=-5,116=2,124=31/1,2,3;
 4//1;
 5/5=2,8=3,13=1,38=5/2,8;
 6/7=2,8=2,9=2,10=2,28=1,40=-1/1,7;
 7//1,2,3,16;
 1/18=20,19=15,26=4/3(2);
 2/9=110/2;
 99//99;
 2/9=110/2;
 3/5=7,6=1,11=2,16=1,17=8,25=1,30=1,71=1,74=-54,75=-5,82=7,116=2,124=31/1,2,3;
 4/5=5,16=3,69=1/1;
 5/5=2,8=3,13=1,38=5/2,8;
 7//1,2,3,16;
 1/18=20,19=15,26=4/3(-5);
 2/9=110/2;
 6/7=2,8=2,9=2,10=2,19=2,28=1,40=-1/1,7;
 99/9=1/99;


 Symbolic Z-matrix:
 Charge =  1 Multiplicity = 1
 C                    -3.48606  -2.13476  -0.53485 
 C                    -3.58696  -0.65664  -0.83843 
 N                    -2.30767  -0.10927  -1.27453 
 O                    -4.67296  -2.71968  -0.49806 
 O                    -2.44503  -2.72554  -0.31358 
 C                    -2.1501    1.33112  -1.03316 
 P                    -1.80139   1.70914   0.72199 
 O                    -1.08568   3.07634   0.75274 
 O                    -1.10711   0.53817   1.34088 
 O                    -3.19979   1.95706   1.44039 
 H                    -0.18223   3.10748   0.19321 
 Ba                    0.00702  -1.45666   0.14405 
 H                    -4.56999  -3.65191  -0.25088 
 H                    -2.18661  -0.28123  -2.26556 
 H                    -4.40861  -0.48947  -1.53994 
 H                    -3.88831  -0.18146   0.09901 
 H                    -1.26827   1.66457  -1.57893 
 H                    -3.00133   1.93077  -1.37062 
 C                     3.51534  -2.1761    0.42229 
 O                     4.68722  -2.76229   0.23306 
 O                     2.45436  -2.76603   0.31912 
 C                     3.6539   -0.70377   0.73082 
 N                     2.44557  -0.16134   1.34534 
 C                     2.25106   1.28101   1.11233 
 P                     1.73671   1.66557  -0.61086 
 O                     1.04621   0.43622  -1.15093 
 O                     0.98547   2.96927  -0.58884 
 O                     3.10238   1.85486  -1.43197 
 H                     4.55072  -3.68938  -0.01679 
 H                     3.82527  -0.21522  -0.23202 
 H                     4.56208  -0.54354   1.31742 
 H                     2.48585  -0.32046   2.34542 
 H                     3.12748   1.8832    1.37111 
 H                     1.42843   1.60757   1.74706 
 H                    -3.38514   2.87791   1.65733 
 H                     3.28417   2.77393  -1.65713 
 

 GradGradGradGradGradGradGradGradGradGradGradGradGradGradGradGradGradGrad
 Berny optimization.
 Initialization pass.
                           ----------------------------
                           !    Initial Parameters    !
                           ! (Angstroms and Degrees)  !
 --------------------------                            --------------------------
 ! Name  Definition              Value          Derivative Info.                !
 --------------------------------------------------------------------------------
 ! R1    R(1,2)                  1.5123         estimate D2E/DX2                !
 ! R2    R(1,4)                  1.3237         estimate D2E/DX2                !
 ! R3    R(1,5)                  1.2173         estimate D2E/DX2                !
 ! R4    R(2,3)                  1.4582         estimate D2E/DX2                !
 ! R5    R(2,15)                 1.0932         estimate D2E/DX2                !
 ! R6    R(2,16)                 1.0934         estimate D2E/DX2                !
 ! R7    R(3,6)                  1.4689         estimate D2E/DX2                !
 ! R8    R(3,12)                 3.0308         estimate D2E/DX2                !
 ! R9    R(3,14)                 1.0131         estimate D2E/DX2                !
 ! R10   R(4,13)                 0.9699         estimate D2E/DX2                !
 ! R11   R(5,12)                 2.7986         estimate D2E/DX2                !
 ! R12   R(6,7)                  1.8289         estimate D2E/DX2                !
 ! R13   R(6,17)                 1.0893         estimate D2E/DX2                !
 ! R14   R(6,18)                 1.0946         estimate D2E/DX2                !
 ! R15   R(7,8)                  1.5435         estimate D2E/DX2                !
 ! R16   R(7,9)                  1.4954         estimate D2E/DX2                !
 ! R17   R(7,10)                 1.5916         estimate D2E/DX2                !
 ! R18   R(8,11)                 1.0631         estimate D2E/DX2                !
 ! R19   R(9,12)                 2.5793         estimate D2E/DX2                !
 ! R20   R(10,35)                0.964          estimate D2E/DX2                !
 ! R21   R(12,21)                2.7811         estimate D2E/DX2                !
 ! R22   R(12,23)                3.0112         estimate D2E/DX2                !
 ! R23   R(12,25)                3.6483         estimate D2E/DX2                !
 ! R24   R(12,26)                2.5179         estimate D2E/DX2                !
 ! R25   R(19,20)                1.3239         estimate D2E/DX2                !
 ! R26   R(19,21)                1.2183         estimate D2E/DX2                !
 ! R27   R(19,22)                1.5107         estimate D2E/DX2                !
 ! R28   R(20,29)                0.9698         estimate D2E/DX2                !
 ! R29   R(22,23)                1.4601         estimate D2E/DX2                !
 ! R30   R(22,30)                1.0932         estimate D2E/DX2                !
 ! R31   R(22,31)                1.093          estimate D2E/DX2                !
 ! R32   R(23,24)                1.4739         estimate D2E/DX2                !
 ! R33   R(23,32)                1.0135         estimate D2E/DX2                !
 ! R34   R(24,25)                1.839          estimate D2E/DX2                !
 ! R35   R(24,33)                1.0944         estimate D2E/DX2                !
 ! R36   R(24,34)                1.0891         estimate D2E/DX2                !
 ! R37   R(25,26)                1.5099         estimate D2E/DX2                !
 ! R38   R(25,27)                1.5048         estimate D2E/DX2                !
 ! R39   R(25,28)                1.6047         estimate D2E/DX2                !
 ! R40   R(28,36)                0.9636         estimate D2E/DX2                !
 ! A1    A(2,1,4)              112.1872         estimate D2E/DX2                !
 ! A2    A(2,1,5)              124.6036         estimate D2E/DX2                !
 ! A3    A(4,1,5)              123.1838         estimate D2E/DX2                !
 ! A4    A(1,2,3)              111.6155         estimate D2E/DX2                !
 ! A5    A(1,2,15)             109.1716         estimate D2E/DX2                !
 ! A6    A(1,2,16)             105.7271         estimate D2E/DX2                !
 ! A7    A(3,2,15)             114.2087         estimate D2E/DX2                !
 ! A8    A(3,2,16)             109.5778         estimate D2E/DX2                !
 ! A9    A(15,2,16)            106.0554         estimate D2E/DX2                !
 ! A10   A(2,3,6)              114.3954         estimate D2E/DX2                !
 ! A11   A(2,3,12)             111.2946         estimate D2E/DX2                !
 ! A12   A(2,3,14)             109.4914         estimate D2E/DX2                !
 ! A13   A(6,3,12)             106.0869         estimate D2E/DX2                !
 ! A14   A(6,3,14)             108.3223         estimate D2E/DX2                !
 ! A15   A(12,3,14)            106.9265         estimate D2E/DX2                !
 ! A16   A(1,4,13)             109.6696         estimate D2E/DX2                !
 ! A17   A(1,5,12)             123.987          estimate D2E/DX2                !
 ! A18   A(3,6,7)              112.3839         estimate D2E/DX2                !
 ! A19   A(3,6,17)             107.7377         estimate D2E/DX2                !
 ! A20   A(3,6,18)             113.7735         estimate D2E/DX2                !
 ! A21   A(7,6,17)             105.2586         estimate D2E/DX2                !
 ! A22   A(7,6,18)             109.3241         estimate D2E/DX2                !
 ! A23   A(17,6,18)            107.9013         estimate D2E/DX2                !
 ! A24   A(6,7,8)              106.8942         estimate D2E/DX2                !
 ! A25   A(6,7,9)              108.895          estimate D2E/DX2                !
 ! A26   A(6,7,10)             107.328          estimate D2E/DX2                !
 ! A27   A(8,7,9)              118.0392         estimate D2E/DX2                !
 ! A28   A(8,7,10)             105.0965         estimate D2E/DX2                !
 ! A29   A(9,7,10)             110.0656         estimate D2E/DX2                !
 ! A30   A(7,8,11)             114.1737         estimate D2E/DX2                !
 ! A31   A(7,9,12)             127.8869         estimate D2E/DX2                !
 ! A32   A(7,10,35)            114.7904         estimate D2E/DX2                !
 ! A33   A(3,12,5)              57.0346         estimate D2E/DX2                !
 ! A34   A(3,12,9)              62.8368         estimate D2E/DX2                !
 ! A35   A(3,12,21)            155.6217         estimate D2E/DX2                !
 ! A36   A(3,12,23)            127.8772         estimate D2E/DX2                !
 ! A37   A(3,12,25)             83.3834         estimate D2E/DX2                !
 ! A38   A(3,12,26)             74.9456         estimate D2E/DX2                !
 ! A39   A(5,12,9)              92.7553         estimate D2E/DX2                !
 ! A40   A(5,12,21)            124.6007         estimate D2E/DX2                !
 ! A41   A(5,12,25)            140.3172         estimate D2E/DX2                !
 ! A42   A(5,12,26)            128.1967         estimate D2E/DX2                !
 ! A43   A(9,12,21)            135.6442         estimate D2E/DX2                !
 ! A44   A(9,12,23)             80.3288         estimate D2E/DX2                !
 ! A45   A(9,12,25)             68.8343         estimate D2E/DX2                !
 ! A46   A(9,12,26)             80.5323         estimate D2E/DX2                !
 ! A47   A(21,12,23)            57.6412         estimate D2E/DX2                !
 ! A48   A(21,12,25)            89.9275         estimate D2E/DX2                !
 ! A49   A(21,12,26)            91.3252         estimate D2E/DX2                !
 ! A50   A(23,12,25)            47.969          estimate D2E/DX2                !
 ! A51   A(23,12,26)            63.1002         estimate D2E/DX2                !
 ! A52   A(20,19,21)           122.9801         estimate D2E/DX2                !
 ! A53   A(20,19,22)           112.3047         estimate D2E/DX2                !
 ! A54   A(21,19,22)           124.6867         estimate D2E/DX2                !
 ! A55   A(19,20,29)           109.603          estimate D2E/DX2                !
 ! A56   A(12,21,19)           122.9355         estimate D2E/DX2                !
 ! A57   A(19,22,23)           111.8461         estimate D2E/DX2                !
 ! A58   A(19,22,30)           105.6673         estimate D2E/DX2                !
 ! A59   A(19,22,31)           109.1902         estimate D2E/DX2                !
 ! A60   A(23,22,30)           109.5353         estimate D2E/DX2                !
 ! A61   A(23,22,31)           114.0355         estimate D2E/DX2                !
 ! A62   A(30,22,31)           106.0776         estimate D2E/DX2                !
 ! A63   A(12,23,22)           110.0275         estimate D2E/DX2                !
 ! A64   A(12,23,24)           104.5373         estimate D2E/DX2                !
 ! A65   A(12,23,32)           110.9965         estimate D2E/DX2                !
 ! A66   A(22,23,24)           113.9672         estimate D2E/DX2                !
 ! A67   A(22,23,32)           108.911          estimate D2E/DX2                !
 ! A68   A(24,23,32)           108.3539         estimate D2E/DX2                !
 ! A69   A(23,24,25)           112.9342         estimate D2E/DX2                !
 ! A70   A(23,24,33)           113.2905         estimate D2E/DX2                !
 ! A71   A(23,24,34)           107.5148         estimate D2E/DX2                !
 ! A72   A(25,24,33)           109.2985         estimate D2E/DX2                !
 ! A73   A(25,24,34)           105.7912         estimate D2E/DX2                !
 ! A74   A(33,24,34)           107.5822         estimate D2E/DX2                !
 ! A75   A(12,25,24)            76.0986         estimate D2E/DX2                !
 ! A76   A(12,25,27)           120.1132         estimate D2E/DX2                !
 ! A77   A(12,25,28)           127.6121         estimate D2E/DX2                !
 ! A78   A(24,25,26)           107.0269         estimate D2E/DX2                !
 ! A79   A(24,25,27)           107.8838         estimate D2E/DX2                !
 ! A80   A(24,25,28)           105.4328         estimate D2E/DX2                !
 ! A81   A(26,25,27)           118.8359         estimate D2E/DX2                !
 ! A82   A(26,25,28)           107.5904         estimate D2E/DX2                !
 ! A83   A(27,25,28)           109.278          estimate D2E/DX2                !
 ! A84   A(25,28,36)           113.1191         estimate D2E/DX2                !
 ! A85   L(5,12,23,3,-1)       184.9118         estimate D2E/DX2                !
 ! A86   L(5,12,23,3,-2)       163.734          estimate D2E/DX2                !
 ! D1    D(4,1,2,3)           -162.6557         estimate D2E/DX2                !
 ! D2    D(4,1,2,15)           -35.4453         estimate D2E/DX2                !
 ! D3    D(4,1,2,16)            78.2643         estimate D2E/DX2                !
 ! D4    D(5,1,2,3)             19.1327         estimate D2E/DX2                !
 ! D5    D(5,1,2,15)           146.3432         estimate D2E/DX2                !
 ! D6    D(5,1,2,16)           -99.9473         estimate D2E/DX2                !
 ! D7    D(2,1,4,13)          -176.7427         estimate D2E/DX2                !
 ! D8    D(5,1,4,13)             1.4984         estimate D2E/DX2                !
 ! D9    D(2,1,5,12)            11.2734         estimate D2E/DX2                !
 ! D10   D(4,1,5,12)          -166.7478         estimate D2E/DX2                !
 ! D11   D(1,2,3,6)           -154.7978         estimate D2E/DX2                !
 ! D12   D(1,2,3,12)           -34.5774         estimate D2E/DX2                !
 ! D13   D(1,2,3,14)            83.4202         estimate D2E/DX2                !
 ! D14   D(15,2,3,6)            80.7687         estimate D2E/DX2                !
 ! D15   D(15,2,3,12)         -159.0109         estimate D2E/DX2                !
 ! D16   D(15,2,3,14)          -41.0132         estimate D2E/DX2                !
 ! D17   D(16,2,3,6)           -38.0304         estimate D2E/DX2                !
 ! D18   D(16,2,3,12)           82.19           estimate D2E/DX2                !
 ! D19   D(16,2,3,14)         -159.8123         estimate D2E/DX2                !
 ! D20   D(2,3,6,7)             76.3008         estimate D2E/DX2                !
 ! D21   D(2,3,6,17)          -168.196          estimate D2E/DX2                !
 ! D22   D(2,3,6,18)           -48.6222         estimate D2E/DX2                !
 ! D23   D(12,3,6,7)           -46.7791         estimate D2E/DX2                !
 ! D24   D(12,3,6,17)           68.7241         estimate D2E/DX2                !
 ! D25   D(12,3,6,18)         -171.702          estimate D2E/DX2                !
 ! D26   D(14,3,6,7)          -161.2789         estimate D2E/DX2                !
 ! D27   D(14,3,6,17)          -45.7758         estimate D2E/DX2                !
 ! D28   D(14,3,6,18)           73.7981         estimate D2E/DX2                !
 ! D29   D(2,3,12,5)            27.6645         estimate D2E/DX2                !
 ! D30   D(2,3,12,9)           -85.7375         estimate D2E/DX2                !
 ! D31   D(2,3,12,21)          129.7044         estimate D2E/DX2                !
 ! D32   D(2,3,12,23)         -136.0694         estimate D2E/DX2                !
 ! D33   D(2,3,12,25)         -155.3098         estimate D2E/DX2                !
 ! D34   D(2,3,12,26)         -172.6741         estimate D2E/DX2                !
 ! D35   D(6,3,12,5)           152.678          estimate D2E/DX2                !
 ! D36   D(6,3,12,9)            39.2759         estimate D2E/DX2                !
 ! D37   D(6,3,12,21)         -105.2822         estimate D2E/DX2                !
 ! D38   D(6,3,12,23)          -11.056          estimate D2E/DX2                !
 ! D39   D(6,3,12,25)          -30.2963         estimate D2E/DX2                !
 ! D40   D(6,3,12,26)          -47.6606         estimate D2E/DX2                !
 ! D41   D(14,3,12,5)          -91.8702         estimate D2E/DX2                !
 ! D42   D(14,3,12,9)          154.7278         estimate D2E/DX2                !
 ! D43   D(14,3,12,21)          10.1696         estimate D2E/DX2                !
 ! D44   D(14,3,12,23)         104.3959         estimate D2E/DX2                !
 ! D45   D(14,3,12,25)          85.1555         estimate D2E/DX2                !
 ! D46   D(14,3,12,26)          67.7912         estimate D2E/DX2                !
 ! D47   D(1,5,12,3)           -20.9148         estimate D2E/DX2                !
 ! D48   D(1,5,12,9)            33.9173         estimate D2E/DX2                !
 ! D49   D(1,5,12,21)         -171.5465         estimate D2E/DX2                !
 ! D50   D(1,5,12,25)          -25.5447         estimate D2E/DX2                !
 ! D51   D(1,5,12,26)          -46.1971         estimate D2E/DX2                !
 ! D52   D(3,6,7,8)            156.4236         estimate D2E/DX2                !
 ! D53   D(3,6,7,9)             27.8724         estimate D2E/DX2                !
 ! D54   D(3,6,7,10)           -91.2494         estimate D2E/DX2                !
 ! D55   D(17,6,7,8)            39.4312         estimate D2E/DX2                !
 ! D56   D(17,6,7,9)           -89.1199         estimate D2E/DX2                !
 ! D57   D(17,6,7,10)          151.7582         estimate D2E/DX2                !
 ! D58   D(18,6,7,8)           -76.2454         estimate D2E/DX2                !
 ! D59   D(18,6,7,9)           155.2034         estimate D2E/DX2                !
 ! D60   D(18,6,7,10)           36.0816         estimate D2E/DX2                !
 ! D61   D(6,7,8,11)           -58.5093         estimate D2E/DX2                !
 ! D62   D(9,7,8,11)            64.5291         estimate D2E/DX2                !
 ! D63   D(10,7,8,11)         -172.3584         estimate D2E/DX2                !
 ! D64   D(6,7,9,12)            14.8828         estimate D2E/DX2                !
 ! D65   D(8,7,9,12)          -107.1427         estimate D2E/DX2                !
 ! D66   D(10,7,9,12)          132.281          estimate D2E/DX2                !
 ! D67   D(6,7,10,35)         -106.8934         estimate D2E/DX2                !
 ! D68   D(8,7,10,35)            6.6515         estimate D2E/DX2                !
 ! D69   D(9,7,10,35)          134.7397         estimate D2E/DX2                !
 ! D70   D(7,9,12,3)           -28.6759         estimate D2E/DX2                !
 ! D71   D(7,9,12,5)           -79.1084         estimate D2E/DX2                !
 ! D72   D(7,9,12,21)          131.3033         estimate D2E/DX2                !
 ! D73   D(7,9,12,23)          113.2741         estimate D2E/DX2                !
 ! D74   D(7,9,12,25)           64.7522         estimate D2E/DX2                !
 ! D75   D(7,9,12,26)           49.1786         estimate D2E/DX2                !
 ! D76   D(3,12,21,19)          89.048          estimate D2E/DX2                !
 ! D77   D(5,12,21,19)         174.5055         estimate D2E/DX2                !
 ! D78   D(9,12,21,19)         -43.3935         estimate D2E/DX2                !
 ! D79   D(23,12,21,19)        -22.2201         estimate D2E/DX2                !
 ! D80   D(25,12,21,19)         15.4245         estimate D2E/DX2                !
 ! D81   D(26,12,21,19)         34.3851         estimate D2E/DX2                !
 ! D82   D(3,12,23,22)        -121.7217         estimate D2E/DX2                !
 ! D83   D(3,12,23,24)           1.0424         estimate D2E/DX2                !
 ! D84   D(3,12,23,32)         117.6551         estimate D2E/DX2                !
 ! D85   D(9,12,23,22)        -165.7276         estimate D2E/DX2                !
 ! D86   D(9,12,23,24)         -42.9635         estimate D2E/DX2                !
 ! D87   D(9,12,23,32)          73.6492         estimate D2E/DX2                !
 ! D88   D(21,12,23,22)         29.1144         estimate D2E/DX2                !
 ! D89   D(21,12,23,24)        151.8785         estimate D2E/DX2                !
 ! D90   D(21,12,23,32)        -91.5088         estimate D2E/DX2                !
 ! D91   D(25,12,23,22)        -95.5739         estimate D2E/DX2                !
 ! D92   D(25,12,23,24)         27.1903         estimate D2E/DX2                !
 ! D93   D(25,12,23,32)        143.803          estimate D2E/DX2                !
 ! D94   D(26,12,23,22)        -81.5044         estimate D2E/DX2                !
 ! D95   D(26,12,23,24)         41.2598         estimate D2E/DX2                !
 ! D96   D(26,12,23,32)        157.8725         estimate D2E/DX2                !
 ! D97   D(3,12,25,24)         138.0808         estimate D2E/DX2                !
 ! D98   D(3,12,25,27)          35.2446         estimate D2E/DX2                !
 ! D99   D(3,12,25,28)        -122.9804         estimate D2E/DX2                !
 ! D100  D(5,12,25,24)         141.9901         estimate D2E/DX2                !
 ! D101  D(5,12,25,27)          39.1539         estimate D2E/DX2                !
 ! D102  D(5,12,25,28)        -119.0711         estimate D2E/DX2                !
 ! D103  D(9,12,25,24)          74.6912         estimate D2E/DX2                !
 ! D104  D(9,12,25,27)         -28.145          estimate D2E/DX2                !
 ! D105  D(9,12,25,28)         173.63           estimate D2E/DX2                !
 ! D106  D(21,12,25,24)        -65.4142         estimate D2E/DX2                !
 ! D107  D(21,12,25,27)       -168.2504         estimate D2E/DX2                !
 ! D108  D(21,12,25,28)         33.5246         estimate D2E/DX2                !
 ! D109  D(23,12,25,24)        -21.4208         estimate D2E/DX2                !
 ! D110  D(23,12,25,27)       -124.257          estimate D2E/DX2                !
 ! D111  D(23,12,25,28)         77.518          estimate D2E/DX2                !
 ! D112  D(21,19,20,29)          1.7092         estimate D2E/DX2                !
 ! D113  D(22,19,20,29)       -176.4314         estimate D2E/DX2                !
 ! D114  D(20,19,21,12)       -165.7708         estimate D2E/DX2                !
 ! D115  D(22,19,21,12)         12.1371         estimate D2E/DX2                !
 ! D116  D(20,19,22,23)       -161.8362         estimate D2E/DX2                !
 ! D117  D(20,19,22,30)         79.0463         estimate D2E/DX2                !
 ! D118  D(20,19,22,31)        -34.6673         estimate D2E/DX2                !
 ! D119  D(21,19,22,23)         20.0607         estimate D2E/DX2                !
 ! D120  D(21,19,22,30)        -99.0568         estimate D2E/DX2                !
 ! D121  D(21,19,22,31)        147.2296         estimate D2E/DX2                !
 ! D122  D(19,22,23,12)        -36.342          estimate D2E/DX2                !
 ! D123  D(19,22,23,24)       -153.3694         estimate D2E/DX2                !
 ! D124  D(19,22,23,32)         85.5291         estimate D2E/DX2                !
 ! D125  D(30,22,23,12)         80.4634         estimate D2E/DX2                !
 ! D126  D(30,22,23,24)        -36.5641         estimate D2E/DX2                !
 ! D127  D(30,22,23,32)       -157.6655         estimate D2E/DX2                !
 ! D128  D(31,22,23,12)       -160.852          estimate D2E/DX2                !
 ! D129  D(31,22,23,24)         82.1206         estimate D2E/DX2                !
 ! D130  D(31,22,23,32)        -38.9808         estimate D2E/DX2                !
 ! D131  D(12,23,24,25)        -46.9826         estimate D2E/DX2                !
 ! D132  D(12,23,24,33)       -171.9307         estimate D2E/DX2                !
 ! D133  D(12,23,24,34)         69.3375         estimate D2E/DX2                !
 ! D134  D(22,23,24,25)         73.18           estimate D2E/DX2                !
 ! D135  D(22,23,24,33)        -51.7681         estimate D2E/DX2                !
 ! D136  D(22,23,24,34)       -170.4999         estimate D2E/DX2                !
 ! D137  D(32,23,24,25)       -165.4091         estimate D2E/DX2                !
 ! D138  D(32,23,24,33)         69.6428         estimate D2E/DX2                !
 ! D139  D(32,23,24,34)        -49.089          estimate D2E/DX2                !
 ! D140  D(23,24,25,12)         36.9974         estimate D2E/DX2                !
 ! D141  D(23,24,25,26)         25.6282         estimate D2E/DX2                !
 ! D142  D(23,24,25,27)        154.5929         estimate D2E/DX2                !
 ! D143  D(23,24,25,28)        -88.7294         estimate D2E/DX2                !
 ! D144  D(33,24,25,12)        164.0863         estimate D2E/DX2                !
 ! D145  D(33,24,25,26)        152.7171         estimate D2E/DX2                !
 ! D146  D(33,24,25,27)        -78.3182         estimate D2E/DX2                !
 ! D147  D(33,24,25,28)         38.3595         estimate D2E/DX2                !
 ! D148  D(34,24,25,12)        -80.3421         estimate D2E/DX2                !
 ! D149  D(34,24,25,26)        -91.7113         estimate D2E/DX2                !
 ! D150  D(34,24,25,27)         37.2534         estimate D2E/DX2                !
 ! D151  D(34,24,25,28)        153.9311         estimate D2E/DX2                !
 ! D152  D(12,25,28,36)        168.7172         estimate D2E/DX2                !
 ! D153  D(24,25,28,36)       -107.1338         estimate D2E/DX2                !
 ! D154  D(26,25,28,36)        138.9001         estimate D2E/DX2                !
 ! D155  D(27,25,28,36)          8.5915         estimate D2E/DX2                !
 --------------------------------------------------------------------------------
 Trust Radius=3.00D-01 FncErr=1.00D-07 GrdErr=1.00D-06 EigMax=2.50D+02 EigMin=1.00D-04
 Number of steps in this run=    216 maximum allowed number of steps=    216.
 GradGradGradGradGradGradGradGradGradGradGradGradGradGradGradGradGradGrad

                          Input orientation:                          
 ---------------------------------------------------------------------
 Center     Atomic      Atomic             Coordinates (Angstroms)
 Number     Number       Type             X           Y           Z
 ---------------------------------------------------------------------
      1          6           0       -3.486061   -2.134762   -0.534854
      2          6           0       -3.586960   -0.656638   -0.838433
      3          7           0       -2.307665   -0.109270   -1.274532
      4          8           0       -4.672962   -2.719677   -0.498060
      5          8           0       -2.445029   -2.725536   -0.313581
      6          6           0       -2.150103    1.331115   -1.033159
      7         15           0       -1.801391    1.709142    0.721991
      8          8           0       -1.085675    3.076341    0.752739
      9          8           0       -1.107107    0.538169    1.340883
     10          8           0       -3.199787    1.957060    1.440391
     11          1           0       -0.182226    3.107480    0.193213
     12         56           0        0.007022   -1.456658    0.144052
     13          1           0       -4.569991   -3.651914   -0.250876
     14          1           0       -2.186610   -0.281231   -2.265556
     15          1           0       -4.408613   -0.489473   -1.539937
     16          1           0       -3.888315   -0.181456    0.099013
     17          1           0       -1.268270    1.664571   -1.578926
     18          1           0       -3.001327    1.930768   -1.370621
     19          6           0        3.515336   -2.176103    0.422294
     20          8           0        4.687218   -2.762292    0.233062
     21          8           0        2.454360   -2.766026    0.319119
     22          6           0        3.653903   -0.703766    0.730820
     23          7           0        2.445573   -0.161338    1.345338
     24          6           0        2.251061    1.281011    1.112334
     25         15           0        1.736713    1.665571   -0.610857
     26          8           0        1.046207    0.436225   -1.150935
     27          8           0        0.985468    2.969268   -0.588840
     28          8           0        3.102383    1.854861   -1.431967
     29          1           0        4.550719   -3.689383   -0.016786
     30          1           0        3.825271   -0.215221   -0.232021
     31          1           0        4.562081   -0.543541    1.317422
     32          1           0        2.485847   -0.320462    2.345418
     33          1           0        3.127477    1.883202    1.371114
     34          1           0        1.428432    1.607571    1.747062
     35          1           0       -3.385143    2.877911    1.657335
     36          1           0        3.284171    2.773929   -1.657130
 ---------------------------------------------------------------------
                    Distance matrix (angstroms):
                    1          2          3          4          5
     1  C    0.000000
     2  C    1.512346   0.000000
     3  N    2.457307   1.458215   0.000000
     4  O    1.323712   2.356137   3.607182   0.000000
     5  O    1.217260   2.420705   2.790545   2.235566   0.000000
     6  C    3.747719   2.460415   1.468944   4.802090   4.130519
     7  P    4.381024   3.349641   2.747552   5.417461   4.599244
     8  O    5.880080   4.766905   3.968779   6.930148   6.053648
     9  O    4.040095   3.510933   2.949731   5.168229   3.896031
    10  O    4.552642   3.489177   3.526529   5.272542   5.056953
    11  H    6.239111   5.179295   4.125439   7.389203   6.277037
    12  Ba   3.622481   3.810776   3.030778   4.889762   2.798577
    13  H    1.886081   3.206751   4.326236   0.969933   2.318960
    14  H    2.849470   2.034353   1.013091   3.905382   3.138727
    15  H    2.137352   1.093236   2.151506   2.475722   3.218632
    16  H    2.092607   1.093351   2.095302   2.723001   2.953922
    17  H    4.521461   3.363431   2.078343   5.655248   4.717933
    18  H    4.178757   2.705709   2.156885   5.018204   4.807074
    19  C    7.066640   7.371623   6.407680   8.257769   6.030700
    20  O    8.233224   8.604877   7.631498   9.388787   7.153259
    21  O    6.034597   6.502845   5.681105   7.174165   4.940238
    22  C    7.391127   7.409108   6.317845   8.655098   6.509631
    23  N    6.527925   6.434721   5.427680   7.785676   5.765857
    24  C    6.877158   6.453098   5.330291   8.157265   6.335528
    25  P    6.459541   5.812567   4.466265   7.767049   6.071009
    26  O    5.246997   4.770561   3.400192   6.564668   4.783996
    27  O    6.785912   5.840941   4.559857   8.024348   6.653936
    28  O    7.754321   7.169883   5.757709   9.069430   7.280425
    29  H    8.202138   8.723214   7.838148   9.286993   7.068067
    30  H    7.565177   7.450084   6.221813   8.863579   6.754627
    31  H    8.410439   8.430147   7.355286   9.660101   7.518035
    32  H    6.873960   6.865050   6.010524   8.067846   6.096572
    33  H    7.969670   7.511095   6.364760   9.248089   7.425058
    34  H    6.585168   6.079933   5.102548   7.809779   6.166503
    35  H    5.471999   4.331585   4.322043   6.134916   6.013896
    36  H    8.437464   7.723439   6.303004   9.738538   8.054376
                    6          7          8          9         10
     6  C    0.000000
     7  P    1.828949   0.000000
     8  O    2.714452   1.543512   0.000000
     9  O    2.711582   1.495404   2.605512   0.000000
    10  O    2.759001   1.591563   2.489000   2.530308   0.000000
    11  H    2.920958   2.203781   1.063136   2.962079   3.461877
    12  Ba   3.716274   3.691430   4.702400   2.579345   4.859792
    13  H    5.594498   6.111672   7.643110   5.664103   6.016513
    14  H    2.029729   3.610460   4.647091   3.852680   4.446405
    15  H    2.944866   4.092411   5.386400   4.500568   4.040932
    16  H    2.567307   2.884044   4.346882   3.129731   2.616603
    17  H    1.089350   2.362292   2.731867   3.133694   3.596189
    18  H    1.094553   2.422393   3.080700   3.588823   2.818131
    19  C    6.820273   6.591853   6.990470   5.438572   7.950625
    20  O    8.068968   7.895240   8.227150   6.759772   9.270101
    21  O    6.310015   6.188767   6.844934   4.964449   7.452124
    22  C    6.398347   5.965101   6.062450   4.958004   7.386240
    23  N    5.385619   4.682303   4.827365   3.620893   6.030483
    24  C    4.896518   4.093657   3.806091   3.446933   5.502400
    25  P    3.923969   3.781079   3.437374   3.628724   5.353654
    26  O    3.321310   3.638267   3.890901   3.294892   5.201574
    27  O    3.565497   3.327579   2.470007   3.743387   4.760116
    28  O    5.293577   5.357963   4.879015   5.209816   6.926632
    29  H    8.434419   8.368940   8.839464   7.192111   9.699279
    30  H    6.223991   6.022676   5.993457   5.231632   7.541034
    31  H    7.354792   6.776643   6.731981   5.771511   8.155655
    32  H    5.969465   5.013503   5.179833   3.828271   6.191334
    33  H    5.825648   4.974475   4.422287   4.443167   6.328074
    34  H    4.540040   3.390109   3.076800   2.781647   4.651515
    35  H    3.340158   2.179257   2.478955   3.280851   0.964048
    36  H    5.657065   5.714625   4.999448   5.768018   7.232124
                   11         12         13         14         15
    11  H    0.000000
    12  Ba   4.568324   0.000000
    13  H    8.070880   5.091578   0.000000
    14  H    4.641817   3.464082   4.593577   0.000000
    15  H    5.814140   4.823806   3.418883   2.346740   0.000000
    16  H    4.955912   4.099002   3.554038   2.914951   1.746923
    17  H    2.530208   3.786435   6.397663   2.258530   3.808304
    18  H    3.431844   4.776929   5.906004   2.521431   2.804762
    19  C    6.452960   3.592115   8.246436   6.582345   8.335709
    20  O    7.626749   4.859716   9.312440   7.723229   9.541666
    21  O    6.439372   2.781107   7.102901   5.864584   7.465868
    22  C    5.434198   3.769733   8.791345   6.577872   8.378928
    23  N    4.349470   3.011224   7.996884   5.874526   7.443947
    24  C    3.178311   3.669893   8.527535   5.791690   7.383794
    25  P    2.531394   3.648291   8.257103   4.681937   6.578179
    26  O    3.232861   2.517916   7.004618   3.494028   5.546468
    27  O    1.412169   4.591656   8.649705   4.841405   6.477931
    28  O    3.872844   4.799088   9.517608   5.764651   7.869093
    29  H    8.285060   5.065186   9.123791   7.878075   9.634783
    30  H    5.223140   4.032570   9.071474   6.346836   8.341625
    31  H    6.091162   4.791569   9.773243   7.645350   9.414923
    32  H    4.847823   3.504500   8.223391   6.564638   7.915689
    33  H    3.720274   4.732609   9.618700   6.793355   8.420004
    34  H    2.694141   3.738923   8.224051   5.721644   7.019477
    35  H    3.529168   5.708353   6.905343   5.177426   4.754925
    36  H    3.943468   5.646400  10.244847   6.295526   8.357181
                   16         17         18         19         20
    16  H    0.000000
    17  H    3.617724   0.000000
    18  H    2.721775   1.765712   0.000000
    19  C    7.674450   6.452793   7.908718   0.000000
    20  O    8.956475   7.638603   9.149335   1.323908   0.000000
    21  O    6.852589   6.090216   7.394566   1.218329   2.234519
    22  C    7.586636   5.930576   7.459819   1.510684   2.356487
    23  N    6.455375   5.067335   6.435997   2.460829   3.609306
    24  C    6.391992   4.446987   5.845924   3.745155   4.801695
    25  P    5.962915   3.157068   4.805891   4.357678   5.387360
    26  O    5.127710   2.654961   4.320238   3.923761   5.040130
    27  O    5.844139   2.786008   4.193351   5.822152   6.872354
    28  O    7.440453   4.377261   6.104490   4.456173   5.157725
    29  H    9.139817   8.060132   9.510644   1.885424   0.969821
    30  H    7.720759   5.593918   7.245972   2.090274   2.728887
    31  H    8.545456   6.874415   8.399578   2.135928   2.472721
    32  H    6.759852   5.782233   6.999004   2.863853   3.907763
    33  H    7.423098   5.298408   6.714284   4.186723   5.030762
    34  H    5.846749   4.282248   5.426524   4.519554   5.657525
    35  H    3.470054   4.052990   3.195765   8.642048   9.950048
    36  H    7.953798   4.686311   6.348267   5.374036   6.015905
                   21         22         23         24         25
    21  O    0.000000
    22  C    2.421016   0.000000
    23  N    2.799571   1.460110   0.000000
    24  C    4.129047   2.460256   1.473939   0.000000
    25  P    4.584640   3.330086   2.768894   1.838975   0.000000
    26  O    3.794517   3.411841   2.923471   2.699578   1.509892
    27  O    5.989626   4.727919   3.958995   2.710338   1.504818
    28  O    4.983857   3.395349   3.494264   2.743633   1.604714
    29  H    2.315198   3.205792   4.328293   5.591793   6.078411
    30  H    2.947839   1.093209   2.096313   2.554239   2.836013
    31  H    3.221574   1.092960   2.150922   2.951586   4.071995
    32  H    3.176108   2.029335   1.013460   2.034781   3.639380
    33  H    4.814053   2.716524   2.155413   1.094398   2.431007
    34  H    4.713799   3.365672   2.079663   1.089147   2.378694
    35  H    8.230713   7.952044   6.582676   5.883359   5.731306
    36  H    5.940139   4.234781   4.281805   3.311503   2.172044
                   26         27         28         29         30
    26  O    0.000000
    27  O    2.595370   0.000000
    28  O    2.513835   2.536551   0.000000
    29  H    5.530690   7.574687   5.902461   0.000000
    30  H    2.998662   4.281678   2.499535   3.555615   0.000000
    31  H    4.406143   5.363377   3.929655   3.417098   1.746842
    32  H    3.856114   4.656536   4.402361   4.603621   2.906599
    33  H    3.575774   3.099864   2.803337   5.916552   2.731362
    34  H    3.149053   2.739868   3.601318   6.396683   3.603356
    35  H    5.786629   4.914864   7.257989  10.435992   8.070142
    36  H    3.275604   2.542329   0.963552   6.787435   3.355405
                   31         32         33         34         35
    31  H    0.000000
    32  H    2.327506   0.000000
    33  H    2.819584   2.493410   0.000000
    34  H    3.825131   2.278918   1.761836   0.000000
    35  H    8.659113   6.720980   6.594360   4.979188   0.000000
    36  H    4.635367   5.121813   3.160413   4.048788   7.448238
                   36
    36  H    0.000000
 Stoichiometry    C6H15BaN2O10P2(1+)
 Framework group  C1[X(C6H15BaN2O10P2)]
 Deg. of freedom   102
 Full point group                 C1      NOp   1
 Largest Abelian subgroup         C1      NOp   1
 Largest concise Abelian subgroup C1      NOp   1
                         Standard orientation:                         
 ---------------------------------------------------------------------
 Center     Atomic      Atomic             Coordinates (Angstroms)
 Number     Number       Type             X           Y           Z
 ---------------------------------------------------------------------
      1          6           0        3.437981   -2.064364    0.395779
      2          6           0        3.603184   -0.596281    0.719246
      3          7           0        2.363392   -0.013492    1.218907
      4          8           0        4.601116   -2.688734    0.298344
      5          8           0        2.368524   -2.615124    0.209635
      6          6           0        2.246131    1.435564    1.008472
      7         15           0        1.836824    1.856954   -0.723565
      8          8           0        1.168615    3.248144   -0.700845
      9          8           0        1.076503    0.721769   -1.331430
     10          8           0        3.211349    2.069890   -1.497136
     11          1           0        0.291306    3.300015   -0.102600
     12         56           0       -0.054912   -1.255133   -0.121149
     13          1           0        4.455289   -3.612287    0.040365
     14          1           0        2.278478   -0.199105    2.211223
     15          1           0        4.459138   -0.469999    1.387499
     16          1           0        3.880980   -0.114804   -0.222256
     17          1           0        1.400377    1.789036    1.597065
     18          1           0        3.131295    1.999581    1.318980
     19          6           0       -3.594837   -1.849130   -0.260388
     20          8           0       -4.777404   -2.398258   -0.030768
     21          8           0       -2.551684   -2.476731   -0.212678
     22          6           0       -3.694858   -0.367581   -0.538190
     23          7           0       -2.495433    0.144261   -1.194937
     24          6           0       -2.240995    1.574674   -0.946584
     25         15           0       -1.641033    1.910218    0.759078
     26          8           0       -0.971617    0.648432    1.248519
     27          8           0       -0.846340    3.187668    0.726472
     28          8           0       -2.963269    2.131187    1.641105
     29          1           0       -4.662897   -3.333837    0.197559
     30          1           0       -3.808143    0.109047    0.439101
     31          1           0       -4.620912   -0.165839   -1.082511
     32          1           0       -2.583547    0.004712   -2.194869
     33          1           0       -3.106025    2.211040   -1.157456
     34          1           0       -1.435081    1.884355   -1.610542
     35          1           0        3.419388    2.987642   -1.706520
     36          1           0       -3.103165    3.051710    1.889095
 ---------------------------------------------------------------------
 Rotational constants (GHZ):           0.2730838           0.1790211           0.1235365
 General basis read from cards:  (5D, 7F)
 ======================================================================================================
                                       Pseudopotential Parameters
 ======================================================================================================
  Center     Atomic      Valence      Angular      Power
  Number     Number     Electrons     Momentum     of R      Exponent        Coefficient   SO-Coeffient
 ======================================================================================================
    1          6
                                   No pseudopotential on this center.
    2          6
                                   No pseudopotential on this center.
    3          7
                                   No pseudopotential on this center.
    4          8
                                   No pseudopotential on this center.
    5          8
                                   No pseudopotential on this center.
    6          6
                                   No pseudopotential on this center.
    7         15
                                   No pseudopotential on this center.
    8          8
                                   No pseudopotential on this center.
    9          8
                                   No pseudopotential on this center.
   10          8
                                   No pseudopotential on this center.
   11          1
                                   No pseudopotential on this center.
   12         56           10
                                      G and up 
                                                     2        1.0000000        0.00000000    0.00000000
                                      S - G
                                                     2        9.5269860      427.84581600    0.00000000
                                                     2        4.4875100      204.41753000    0.00000000
                                      P - G
                                                     2        8.3159300      293.60586400    0.00000000
                                                     2        4.2922170      294.19331600    0.00000000
                                      D - G
                                                     2        5.9161080      112.55040200    0.00000000
                                                     2        2.8748420      181.78262100    0.00000000
                                      F - G
                                                     2        3.5894650      -33.47317400    0.00000000
   13          1
                                   No pseudopotential on this center.
   14          1
                                   No pseudopotential on this center.
   15          1
                                   No pseudopotential on this center.
   16          1
                                   No pseudopotential on this center.
   17          1
                                   No pseudopotential on this center.
   18          1
                                   No pseudopotential on this center.
   19          6
                                   No pseudopotential on this center.
   20          8
                                   No pseudopotential on this center.
   21          8
                                   No pseudopotential on this center.
   22          6
                                   No pseudopotential on this center.
   23          7
                                   No pseudopotential on this center.
   24          6
                                   No pseudopotential on this center.
   25         15
                                   No pseudopotential on this center.
   26          8
                                   No pseudopotential on this center.
   27          8
                                   No pseudopotential on this center.
   28          8
                                   No pseudopotential on this center.
   29          1
                                   No pseudopotential on this center.
   30          1
                                   No pseudopotential on this center.
   31          1
                                   No pseudopotential on this center.
   32          1
                                   No pseudopotential on this center.
   33          1
                                   No pseudopotential on this center.
   34          1
                                   No pseudopotential on this center.
   35          1
                                   No pseudopotential on this center.
   36          1
                                   No pseudopotential on this center.
 ======================================================================================================
 There are   868 symmetry adapted cartesian basis functions of A   symmetry.
 There are   762 symmetry adapted basis functions of A   symmetry.
   762 basis functions,  1244 primitive gaussians,   868 cartesian basis functions
    92 alpha electrons       92 beta electrons
       nuclear repulsion energy      2366.6847973951 Hartrees.
 NAtoms=   36 NActive=   36 NUniq=   36 SFac= 1.00D+00 NAtFMM=   60 NAOKFM=F Big=F
 Integral buffers will be    131072 words long.
 Raffenetti 2 integral format.
 Two-electron integral symmetry is turned on.
 Nuclear repulsion after empirical dispersion term =     2366.6777235290 Hartrees.
 One-electron integrals computed using PRISM.
   1 Symmetry operations used in ECPInt.
 ECPInt:  NShTT=   44551 NPrTT=  138073 LenC2=   37092 LenP2D=   80164.
 LDataN:  DoStor=T MaxTD1= 7 Len=  274
 NBasis=   762 RedAO= T EigKep=  2.19D-04  NBF=   762
 NBsUse=   762 1.00D-06 EigRej= -1.00D+00 NBFU=   762
 Defaulting to unpruned grid for atomic number  56.
 ExpMin= 1.63D-02 ExpMax= 5.24D+04 ExpMxC= 1.79D+03 IAcc=3 IRadAn=         5 AccDes= 0.00D+00
 Harris functional with IExCor= 1009 and IRadAn=       5 diagonalized for initial guess.
 HarFok:  IExCor= 1009 AccDes= 0.00D+00 IRadAn=         5 IDoV= 1 UseB2=F ITyADJ=14
 ICtDFT=  3500011 ScaDFX=  1.000000  1.000000  1.000000  1.000000
 Defaulting to unpruned grid for atomic number  56.
 FoFCou: FMM=F IPFlag=           0 FMFlag=      100000 FMFlg1=           0
         NFxFlg=           0 DoJE=T BraDBF=F KetDBF=T FulRan=T
         wScrn=  0.000000 ICntrl=       500 IOpCl=  0 I1Cent=   200000004 NGrid=           0
         NMat0=    1 NMatS0=      1 NMatT0=    0 NMatD0=    1 NMtDS0=    0 NMtDT0=    0
 Petite list used in FoFCou.
 Initial guess <Sx>= 0.0000 <Sy>= 0.0000 <Sz>= 0.0000 <S**2>= 0.0000 S= 0.0000
 Requested convergence on RMS density matrix=1.00D-08 within  32 cycles.
 Requested convergence on MAX density matrix=1.00D-06.
 Requested convergence on             energy=1.00D-06.
 No special actions if energy rises.
 Defaulting to unpruned grid for atomic number  56.
 Defaulting to unpruned grid for atomic number  56.
 Defaulting to unpruned grid for atomic number  56.
 Defaulting to unpruned grid for atomic number  56.
 Defaulting to unpruned grid for atomic number  56.
 Defaulting to unpruned grid for atomic number  56.
 Defaulting to unpruned grid for atomic number  56.
 Defaulting to unpruned grid for atomic number  56.
 Defaulting to unpruned grid for atomic number  56.
 Defaulting to unpruned grid for atomic number  56.
 Defaulting to unpruned grid for atomic number  56.
 Defaulting to unpruned grid for atomic number  56.
 Defaulting to unpruned grid for atomic number  56.
 Defaulting to unpruned grid for atomic number  56.
 Defaulting to unpruned grid for atomic number  56.
 Defaulting to unpruned grid for atomic number  56.
 Defaulting to unpruned grid for atomic number  56.
 Defaulting to unpruned grid for atomic number  56.
 Defaulting to unpruned grid for atomic number  56.
 Defaulting to unpruned grid for atomic number  56.
 Defaulting to unpruned grid for atomic number  56.
 Defaulting to unpruned grid for atomic number  56.
 Defaulting to unpruned grid for atomic number  56.
 Defaulting to unpruned grid for atomic number  56.
 Defaulting to unpruned grid for atomic number  56.
 Defaulting to unpruned grid for atomic number  56.
 Defaulting to unpruned grid for atomic number  56.
 Defaulting to unpruned grid for atomic number  56.
 Defaulting to unpruned grid for atomic number  56.
 Defaulting to unpruned grid for atomic number  56.
 Defaulting to unpruned grid for atomic number  56.
 Defaulting to unpruned grid for atomic number  56.
 Defaulting to unpruned grid for atomic number  56.
 Defaulting to unpruned grid for atomic number  56.
 Defaulting to unpruned grid for atomic number  56.
 Defaulting to unpruned grid for atomic number  56.
 Defaulting to unpruned grid for atomic number  56.
 Defaulting to unpruned grid for atomic number  56.
 Defaulting to unpruned grid for atomic number  56.
 Defaulting to unpruned grid for atomic number  56.
 Defaulting to unpruned grid for atomic number  56.
 Defaulting to unpruned grid for atomic number  56.
 Defaulting to unpruned grid for atomic number  56.
 Defaulting to unpruned grid for atomic number  56.
 Defaulting to unpruned grid for atomic number  56.
 Defaulting to unpruned grid for atomic number  56.
 Defaulting to unpruned grid for atomic number  56.
 Defaulting to unpruned grid for atomic number  56.
 SCF Done:  E(UM06) =  -1807.75972958     A.U. after   13 cycles
            NFock= 13  Conv=0.36D-08     -V/T= 2.0134
 <Sx>= 0.0000 <Sy>= 0.0000 <Sz>= 0.0000 <S**2>=-0.0000 S=-0.0000
 <L.S>= 0.000000000000E+00
 Annihilation of the first spin contaminant:
 S**2 before annihilation    -0.0000,   after     0.0000
 QCSCF skips out because SCF is already converged.

 **********************************************************************

            Population analysis using the SCF Density.

 **********************************************************************

 Orbital symmetries:
 Alpha Orbitals:
       Occupied  (A) (A) (A) (A) (A) (A) (A) (A) (A) (A) (A) (A)
                 (A) (A) (A) (A) (A) (A) (A) (A) (A) (A) (A) (A)
                 (A) (A) (A) (A) (A) (A) (A) (A) (A) (A) (A) (A)
                 (A) (A) (A) (A) (A) (A) (A) (A) (A) (A) (A) (A)
                 (A) (A) (A) (A) (A) (A) (A) (A) (A) (A) (A) (A)
                 (A) (A) (A) (A) (A) (A) (A) (A) (A) (A) (A) (A)
                 (A) (A) (A) (A) (A) (A) (A) (A) (A) (A) (A) (A)
                 (A) (A) (A) (A) (A) (A) (A) (A)
       Virtual   (A) (A) (A) (A) (A) (A) (A) (A) (A) (A) (A) (A)
                 (A) (A) (A) (A) (A) (A) (A) (A) (A) (A) (A) (A)
                 (A) (A) (A) (A) (A) (A) (A) (A) (A) (A) (A) (A)
                 (A) (A) (A) (A) (A) (A) (A) (A) (A) (A) (A) (A)
                 (A) (A) (A) (A) (A) (A) (A) (A) (A) (A) (A) (A)
                 (A) (A) (A) (A) (A) (A) (A) (A) (A) (A) (A) (A)
                 (A) (A) (A) (A) (A) (A) (A) (A) (A) (A) (A) (A)
                 (A) (A) (A) (A) (A) (A) (A) (A) (A) (A) (A) (A)
                 (A) (A) (A) (A) (A) (A) (A) (A) (A) (A) (A) (A)
                 (A) (A) (A) (A) (A) (A) (A) (A) (A) (A) (A) (A)
                 (A) (A) (A) (A) (A) (A) (A) (A) (A) (A) (A) (A)
                 (A) (A) (A) (A) (A) (A) (A) (A) (A) (A) (A) (A)
                 (A) (A) (A) (A) (A) (A) (A) (A) (A) (A) (A) (A)
                 (A) (A) (A) (A) (A) (A) (A) (A) (A) (A) (A) (A)
                 (A) (A) (A) (A) (A) (A) (A) (A) (A) (A) (A) (A)
                 (A) (A) (A) (A) (A) (A) (A) (A) (A) (A) (A) (A)
                 (A) (A) (A) (A) (A) (A) (A) (A) (A) (A) (A) (A)
                 (A) (A) (A) (A) (A) (A) (A) (A) (A) (A) (A) (A)
                 (A) (A) (A) (A) (A) (A) (A) (A) (A) (A) (A) (A)
                 (A) (A) (A) (A) (A) (A) (A) (A) (A) (A) (A) (A)
                 (A) (A) (A) (A) (A) (A) (A) (A) (A) (A) (A) (A)
                 (A) (A) (A) (A) (A) (A) (A) (A) (A) (A) (A) (A)
                 (A) (A) (A) (A) (A) (A) (A) (A) (A) (A) (A) (A)
                 (A) (A) (A) (A) (A) (A) (A) (A) (A) (A) (A) (A)
                 (A) (A) (A) (A) (A) (A) (A) (A) (A) (A) (A) (A)
                 (A) (A) (A) (A) (A) (A) (A) (A) (A) (A) (A) (A)
                 (A) (A) (A) (A) (A) (A) (A) (A) (A) (A) (A) (A)
                 (A) (A) (A) (A) (A) (A) (A) (A) (A) (A) (A) (A)
                 (A) (A) (A) (A) (A) (A) (A) (A) (A) (A) (A) (A)
                 (A) (A) (A) (A) (A) (A) (A) (A) (A) (A) (A) (A)
                 (A) (A) (A) (A) (A) (A) (A) (A) (A) (A) (A) (A)
                 (A) (A) (A) (A) (A) (A) (A) (A) (A) (A) (A) (A)
                 (A) (A) (A) (A) (A) (A) (A) (A) (A) (A) (A) (A)
                 (A) (A) (A) (A) (A) (A) (A) (A) (A) (A) (A) (A)
                 (A) (A) (A) (A) (A) (A) (A) (A) (A) (A) (A) (A)
                 (A) (A) (A) (A) (A) (A) (A) (A) (A) (A) (A) (A)
                 (A) (A) (A) (A) (A) (A) (A) (A) (A) (A) (A) (A)
                 (A) (A) (A) (A) (A) (A) (A) (A) (A) (A) (A) (A)
                 (A) (A) (A) (A) (A) (A) (A) (A) (A) (A) (A) (A)
                 (A) (A) (A) (A) (A) (A) (A) (A) (A) (A) (A) (A)
                 (A) (A) (A) (A) (A) (A) (A) (A) (A) (A) (A) (A)
                 (A) (A) (A) (A) (A) (A) (A) (A) (A) (A) (A) (A)
                 (A) (A) (A) (A) (A) (A) (A) (A) (A) (A) (A) (A)
                 (A) (A) (A) (A) (A) (A) (A) (A) (A) (A) (A) (A)
                 (A) (A) (A) (A) (A) (A) (A) (A) (A) (A) (A) (A)
                 (A) (A) (A) (A) (A) (A) (A) (A) (A) (A) (A) (A)
                 (A) (A) (A) (A) (A) (A) (A) (A) (A) (A) (A) (A)
                 (A) (A) (A) (A) (A) (A) (A) (A) (A) (A) (A) (A)
                 (A) (A) (A) (A) (A) (A) (A) (A) (A) (A) (A) (A)
                 (A) (A) (A) (A) (A) (A) (A) (A) (A) (A) (A) (A)
                 (A) (A) (A) (A) (A) (A) (A) (A) (A) (A) (A) (A)
                 (A) (A) (A) (A) (A) (A) (A) (A) (A) (A) (A) (A)
                 (A) (A) (A) (A) (A) (A) (A) (A) (A) (A) (A) (A)
                 (A) (A) (A) (A) (A) (A) (A) (A) (A) (A) (A) (A)
                 (A) (A) (A) (A) (A) (A) (A) (A) (A) (A) (A) (A)
                 (A) (A) (A) (A) (A) (A) (A) (A) (A) (A)
 Beta  Orbitals:
       Occupied  (A) (A) (A) (A) (A) (A) (A) (A) (A) (A) (A) (A)
                 (A) (A) (A) (A) (A) (A) (A) (A) (A) (A) (A) (A)
                 (A) (A) (A) (A) (A) (A) (A) (A) (A) (A) (A) (A)
                 (A) (A) (A) (A) (A) (A) (A) (A) (A) (A) (A) (A)
                 (A) (A) (A) (A) (A) (A) (A) (A) (A) (A) (A) (A)
                 (A) (A) (A) (A) (A) (A) (A) (A) (A) (A) (A) (A)
                 (A) (A) (A) (A) (A) (A) (A) (A) (A) (A) (A) (A)
                 (A) (A) (A) (A) (A) (A) (A) (A)
       Virtual   (A) (A) (A) (A) (A) (A) (A) (A) (A) (A) (A) (A)
                 (A) (A) (A) (A) (A) (A) (A) (A) (A) (A) (A) (A)
                 (A) (A) (A) (A) (A) (A) (A) (A) (A) (A) (A) (A)
                 (A) (A) (A) (A) (A) (A) (A) (A) (A) (A) (A) (A)
                 (A) (A) (A) (A) (A) (A) (A) (A) (A) (A) (A) (A)
                 (A) (A) (A) (A) (A) (A) (A) (A) (A) (A) (A) (A)
                 (A) (A) (A) (A) (A) (A) (A) (A) (A) (A) (A) (A)
                 (A) (A) (A) (A) (A) (A) (A) (A) (A) (A) (A) (A)
                 (A) (A) (A) (A) (A) (A) (A) (A) (A) (A) (A) (A)
                 (A) (A) (A) (A) (A) (A) (A) (A) (A) (A) (A) (A)
                 (A) (A) (A) (A) (A) (A) (A) (A) (A) (A) (A) (A)
                 (A) (A) (A) (A) (A) (A) (A) (A) (A) (A) (A) (A)
                 (A) (A) (A) (A) (A) (A) (A) (A) (A) (A) (A) (A)
                 (A) (A) (A) (A) (A) (A) (A) (A) (A) (A) (A) (A)
                 (A) (A) (A) (A) (A) (A) (A) (A) (A) (A) (A) (A)
                 (A) (A) (A) (A) (A) (A) (A) (A) (A) (A) (A) (A)
                 (A) (A) (A) (A) (A) (A) (A) (A) (A) (A) (A) (A)
                 (A) (A) (A) (A) (A) (A) (A) (A) (A) (A) (A) (A)
                 (A) (A) (A) (A) (A) (A) (A) (A) (A) (A) (A) (A)
                 (A) (A) (A) (A) (A) (A) (A) (A) (A) (A) (A) (A)
                 (A) (A) (A) (A) (A) (A) (A) (A) (A) (A) (A) (A)
                 (A) (A) (A) (A) (A) (A) (A) (A) (A) (A) (A) (A)
                 (A) (A) (A) (A) (A) (A) (A) (A) (A) (A) (A) (A)
                 (A) (A) (A) (A) (A) (A) (A) (A) (A) (A) (A) (A)
                 (A) (A) (A) (A) (A) (A) (A) (A) (A) (A) (A) (A)
                 (A) (A) (A) (A) (A) (A) (A) (A) (A) (A) (A) (A)
                 (A) (A) (A) (A) (A) (A) (A) (A) (A) (A) (A) (A)
                 (A) (A) (A) (A) (A) (A) (A) (A) (A) (A) (A) (A)
                 (A) (A) (A) (A) (A) (A) (A) (A) (A) (A) (A) (A)
                 (A) (A) (A) (A) (A) (A) (A) (A) (A) (A) (A) (A)
                 (A) (A) (A) (A) (A) (A) (A) (A) (A) (A) (A) (A)
                 (A) (A) (A) (A) (A) (A) (A) (A) (A) (A) (A) (A)
                 (A) (A) (A) (A) (A) (A) (A) (A) (A) (A) (A) (A)
                 (A) (A) (A) (A) (A) (A) (A) (A) (A) (A) (A) (A)
                 (A) (A) (A) (A) (A) (A) (A) (A) (A) (A) (A) (A)
                 (A) (A) (A) (A) (A) (A) (A) (A) (A) (A) (A) (A)
                 (A) (A) (A) (A) (A) (A) (A) (A) (A) (A) (A) (A)
                 (A) (A) (A) (A) (A) (A) (A) (A) (A) (A) (A) (A)
                 (A) (A) (A) (A) (A) (A) (A) (A) (A) (A) (A) (A)
                 (A) (A) (A) (A) (A) (A) (A) (A) (A) (A) (A) (A)
                 (A) (A) (A) (A) (A) (A) (A) (A) (A) (A) (A) (A)
                 (A) (A) (A) (A) (A) (A) (A) (A) (A) (A) (A) (A)
                 (A) (A) (A) (A) (A) (A) (A) (A) (A) (A) (A) (A)
                 (A) (A) (A) (A) (A) (A) (A) (A) (A) (A) (A) (A)
                 (A) (A) (A) (A) (A) (A) (A) (A) (A) (A) (A) (A)
                 (A) (A) (A) (A) (A) (A) (A) (A) (A) (A) (A) (A)
                 (A) (A) (A) (A) (A) (A) (A) (A) (A) (A) (A) (A)
                 (A) (A) (A) (A) (A) (A) (A) (A) (A) (A) (A) (A)
                 (A) (A) (A) (A) (A) (A) (A) (A) (A) (A) (A) (A)
                 (A) (A) (A) (A) (A) (A) (A) (A) (A) (A) (A) (A)
                 (A) (A) (A) (A) (A) (A) (A) (A) (A) (A) (A) (A)
                 (A) (A) (A) (A) (A) (A) (A) (A) (A) (A) (A) (A)
                 (A) (A) (A) (A) (A) (A) (A) (A) (A) (A) (A) (A)
                 (A) (A) (A) (A) (A) (A) (A) (A) (A) (A) (A) (A)
                 (A) (A) (A) (A) (A) (A) (A) (A) (A) (A) (A) (A)
                 (A) (A) (A) (A) (A) (A) (A) (A) (A) (A)
 The electronic state is 1-A.
 Alpha  occ. eigenvalues --  -77.44604 -77.41614 -19.39662 -19.39196 -19.35051
 Alpha  occ. eigenvalues --  -19.34922 -19.34453 -19.32774 -19.32061 -19.29403
 Alpha  occ. eigenvalues --  -19.27529 -19.27095 -14.53346 -14.52625 -10.52342
 Alpha  occ. eigenvalues --  -10.51838 -10.41473 -10.40660 -10.39063 -10.37726
 Alpha  occ. eigenvalues --   -6.85212  -6.82219  -4.97310  -4.97105  -4.97007
 Alpha  occ. eigenvalues --   -4.94311  -4.94088  -4.94051  -1.39860  -1.27965
 Alpha  occ. eigenvalues --   -1.27494  -1.21322  -1.19238  -1.18739  -1.18314
 Alpha  occ. eigenvalues --   -1.15450  -1.11682  -1.11095  -1.07906  -1.06995
 Alpha  occ. eigenvalues --   -1.06060  -0.89969  -0.89120  -0.82723  -0.81497
 Alpha  occ. eigenvalues --   -0.81218  -0.80943  -0.80399  -0.76379  -0.75534
 Alpha  occ. eigenvalues --   -0.73296  -0.70306  -0.67999  -0.66732  -0.66241
 Alpha  occ. eigenvalues --   -0.66190  -0.65654  -0.64383  -0.63496  -0.62610
 Alpha  occ. eigenvalues --   -0.61858  -0.60866  -0.59904  -0.59519  -0.58672
 Alpha  occ. eigenvalues --   -0.56962  -0.56346  -0.55907  -0.54956  -0.54271
 Alpha  occ. eigenvalues --   -0.53954  -0.53312  -0.52602  -0.52494  -0.52119
 Alpha  occ. eigenvalues --   -0.51407  -0.49844  -0.49177  -0.48708  -0.48232
 Alpha  occ. eigenvalues --   -0.46403  -0.46105  -0.45463  -0.44847  -0.44604
 Alpha  occ. eigenvalues --   -0.44037  -0.43664  -0.42499  -0.42295  -0.40746
 Alpha  occ. eigenvalues --   -0.40366  -0.39225
 Alpha virt. eigenvalues --   -0.15364  -0.13963  -0.13535  -0.13228  -0.12342
 Alpha virt. eigenvalues --   -0.11847  -0.10253  -0.09524  -0.09198  -0.09067
 Alpha virt. eigenvalues --   -0.07692  -0.06433  -0.05379  -0.04939  -0.04497
 Alpha virt. eigenvalues --   -0.03880  -0.03725  -0.03297  -0.03191  -0.03087
 Alpha virt. eigenvalues --   -0.02523  -0.01941  -0.01671  -0.01271  -0.00677
 Alpha virt. eigenvalues --   -0.00404  -0.00229   0.00735   0.01075   0.01271
 Alpha virt. eigenvalues --    0.01678   0.01835   0.02110   0.02589   0.03901
 Alpha virt. eigenvalues --    0.04455   0.04830   0.05259   0.05285   0.05705
 Alpha virt. eigenvalues --    0.06623   0.07331   0.07515   0.08230   0.08764
 Alpha virt. eigenvalues --    0.08904   0.10338   0.10758   0.10898   0.12262
 Alpha virt. eigenvalues --    0.13360   0.13624   0.13985   0.14148   0.15209
 Alpha virt. eigenvalues --    0.15783   0.16794   0.17353   0.18234   0.18414
 Alpha virt. eigenvalues --    0.18847   0.18895   0.19325   0.19588   0.20760
 Alpha virt. eigenvalues --    0.21268   0.22280   0.23126   0.23633   0.24303
 Alpha virt. eigenvalues --    0.24460   0.24890   0.25250   0.25721   0.26155
 Alpha virt. eigenvalues --    0.26275   0.26773   0.27939   0.28583   0.28935
 Alpha virt. eigenvalues --    0.29408   0.29741   0.29851   0.30244   0.30337
 Alpha virt. eigenvalues --    0.31043   0.31323   0.32070   0.32965   0.33370
 Alpha virt. eigenvalues --    0.33458   0.33682   0.34035   0.34513   0.34715
 Alpha virt. eigenvalues --    0.35724   0.36562   0.36718   0.36987   0.37265
 Alpha virt. eigenvalues --    0.37713   0.38529   0.38957   0.39211   0.39634
 Alpha virt. eigenvalues --    0.39828   0.40042   0.40502   0.41102   0.41937
 Alpha virt. eigenvalues --    0.42216   0.42524   0.43051   0.43540   0.43977
 Alpha virt. eigenvalues --    0.44737   0.45061   0.46026   0.46355   0.46810
 Alpha virt. eigenvalues --    0.47365   0.47560   0.48534   0.49633   0.50383
 Alpha virt. eigenvalues --    0.50807   0.51568   0.51653   0.52893   0.53201
 Alpha virt. eigenvalues --    0.54146   0.54987   0.56123   0.56579   0.57599
 Alpha virt. eigenvalues --    0.58644   0.59237   0.59923   0.61038   0.61759
 Alpha virt. eigenvalues --    0.62064   0.62471   0.63372   0.64130   0.64487
 Alpha virt. eigenvalues --    0.64831   0.65805   0.65960   0.66828   0.67774
 Alpha virt. eigenvalues --    0.68510   0.69182   0.69959   0.71063   0.71196
 Alpha virt. eigenvalues --    0.71962   0.72314   0.73702   0.74082   0.74270
 Alpha virt. eigenvalues --    0.75583   0.76907   0.77255   0.77583   0.79455
 Alpha virt. eigenvalues --    0.79891   0.80672   0.81241   0.82033   0.82765
 Alpha virt. eigenvalues --    0.83590   0.83837   0.85138   0.85935   0.86191
 Alpha virt. eigenvalues --    0.87107   0.88138   0.88944   0.89584   0.90071
 Alpha virt. eigenvalues --    0.90477   0.90612   0.91149   0.92151   0.93981
 Alpha virt. eigenvalues --    0.94953   0.95206   0.96650   0.98137   0.98923
 Alpha virt. eigenvalues --    0.99557   1.01075   1.02101   1.03316   1.03762
 Alpha virt. eigenvalues --    1.05827   1.06851   1.08614   1.10065   1.11786
 Alpha virt. eigenvalues --    1.12945   1.14177   1.15100   1.15766   1.17296
 Alpha virt. eigenvalues --    1.17611   1.18867   1.19117   1.19985   1.20562
 Alpha virt. eigenvalues --    1.20744   1.21720   1.22149   1.23251   1.23685
 Alpha virt. eigenvalues --    1.24677   1.26667   1.27680   1.28274   1.29432
 Alpha virt. eigenvalues --    1.29645   1.30418   1.31377   1.32013   1.32734
 Alpha virt. eigenvalues --    1.33834   1.34786   1.35171   1.35400   1.36027
 Alpha virt. eigenvalues --    1.36752   1.37982   1.38205   1.39016   1.40040
 Alpha virt. eigenvalues --    1.40623   1.40895   1.42138   1.42371   1.43970
 Alpha virt. eigenvalues --    1.45049   1.45063   1.45962   1.46766   1.48555
 Alpha virt. eigenvalues --    1.48917   1.49060   1.49273   1.51252   1.51863
 Alpha virt. eigenvalues --    1.52591   1.53346   1.54079   1.54421   1.55362
 Alpha virt. eigenvalues --    1.55610   1.56378   1.56818   1.57528   1.59156
 Alpha virt. eigenvalues --    1.61606   1.63171   1.63664   1.64592   1.65315
 Alpha virt. eigenvalues --    1.66979   1.68353   1.69245   1.70085   1.71067
 Alpha virt. eigenvalues --    1.71930   1.72331   1.73480   1.74230   1.75247
 Alpha virt. eigenvalues --    1.75617   1.76422   1.78685   1.79430   1.79776
 Alpha virt. eigenvalues --    1.80336   1.80394   1.80942   1.82008   1.83471
 Alpha virt. eigenvalues --    1.84164   1.84790   1.85758   1.85973   1.86607
 Alpha virt. eigenvalues --    1.87560   1.87615   1.88153   1.88499   1.89536
 Alpha virt. eigenvalues --    1.89970   1.90272   1.91040   1.92229   1.93724
 Alpha virt. eigenvalues --    1.94271   1.94899   1.95832   1.97180   1.98087
 Alpha virt. eigenvalues --    1.99296   2.00400   2.01165   2.01791   2.03327
 Alpha virt. eigenvalues --    2.04181   2.04730   2.06208   2.07683   2.08205
 Alpha virt. eigenvalues --    2.08905   2.09344   2.09933   2.10986   2.11959
 Alpha virt. eigenvalues --    2.12314   2.12858   2.13684   2.13817   2.14425
 Alpha virt. eigenvalues --    2.15966   2.16753   2.17648   2.17867   2.18564
 Alpha virt. eigenvalues --    2.19606   2.20177   2.20456   2.21911   2.24709
 Alpha virt. eigenvalues --    2.25892   2.26320   2.26893   2.29076   2.29651
 Alpha virt. eigenvalues --    2.30361   2.31059   2.31675   2.32049   2.35028
 Alpha virt. eigenvalues --    2.35713   2.36280   2.37031   2.37184   2.38883
 Alpha virt. eigenvalues --    2.39980   2.41822   2.43070   2.43176   2.45434
 Alpha virt. eigenvalues --    2.46723   2.48018   2.50063   2.51461   2.52115
 Alpha virt. eigenvalues --    2.53333   2.53533   2.54102   2.56110   2.57302
 Alpha virt. eigenvalues --    2.58261   2.58748   2.59265   2.59838   2.61048
 Alpha virt. eigenvalues --    2.63187   2.63667   2.64480   2.66418   2.66945
 Alpha virt. eigenvalues --    2.69060   2.70102   2.72931   2.73200   2.74109
 Alpha virt. eigenvalues --    2.74528   2.75341   2.75872   2.77162   2.78292
 Alpha virt. eigenvalues --    2.79218   2.81436   2.82096   2.83038   2.84236
 Alpha virt. eigenvalues --    2.84678   2.84903   2.85726   2.86998   2.87653
 Alpha virt. eigenvalues --    2.88681   2.91490   2.92283   2.93038   2.94346
 Alpha virt. eigenvalues --    2.94881   2.95263   2.95836   2.96112   2.97027
 Alpha virt. eigenvalues --    2.98369   2.99484   3.00447   3.00618   3.02956
 Alpha virt. eigenvalues --    3.03370   3.03715   3.04398   3.06397   3.07259
 Alpha virt. eigenvalues --    3.07419   3.07977   3.09147   3.09387   3.10150
 Alpha virt. eigenvalues --    3.11071   3.11732   3.12652   3.13680   3.14239
 Alpha virt. eigenvalues --    3.15865   3.16064   3.18111   3.20266   3.21126
 Alpha virt. eigenvalues --    3.22453   3.23114   3.23561   3.24668   3.24855
 Alpha virt. eigenvalues --    3.26709   3.28026   3.28794   3.30606   3.31101
 Alpha virt. eigenvalues --    3.32267   3.32560   3.33188   3.34522   3.36994
 Alpha virt. eigenvalues --    3.37880   3.40334   3.40898   3.44089   3.44875
 Alpha virt. eigenvalues --    3.45975   3.50635   3.52405   3.52708   3.53830
 Alpha virt. eigenvalues --    3.54673   3.55170   3.56031   3.60526   3.61485
 Alpha virt. eigenvalues --    3.65646   3.65965   3.66473   3.67369   3.67969
 Alpha virt. eigenvalues --    3.69548   3.70101   3.70444   3.80575   3.82290
 Alpha virt. eigenvalues --    3.83767   3.84586   3.87672   3.88432   3.89966
 Alpha virt. eigenvalues --    3.90321   3.90528   3.93552   3.94343   3.95467
 Alpha virt. eigenvalues --    3.98460   3.99703   4.04149   4.07592   4.09279
 Alpha virt. eigenvalues --    4.11217   4.12133   4.17937   4.20023   4.29133
 Alpha virt. eigenvalues --    4.30558   4.31750   4.32474   4.41319   4.41372
 Alpha virt. eigenvalues --    4.54215   4.55285   4.59895   4.60144   4.71239
 Alpha virt. eigenvalues --    4.71637   4.87930   4.88852   4.90733   4.91510
 Alpha virt. eigenvalues --    4.93268   4.93714   4.99764   5.01086   5.01379
 Alpha virt. eigenvalues --    5.01537   5.02451   5.03175   5.03464   5.03888
 Alpha virt. eigenvalues --    5.04143   5.05155   5.05486   5.05920   5.06546
 Alpha virt. eigenvalues --    5.07146   5.07396   5.07809   5.08074   5.08561
 Alpha virt. eigenvalues --    5.08679   5.09376   5.09942   5.10336   5.11478
 Alpha virt. eigenvalues --    5.11711   5.12460   5.14009   5.14232   5.15094
 Alpha virt. eigenvalues --    5.15370   5.17713   5.19008   5.20990   5.22632
 Alpha virt. eigenvalues --    5.23864   5.25029   5.25593   5.25802   5.26036
 Alpha virt. eigenvalues --    5.26408   5.26931   5.27394   5.29927   5.30170
 Alpha virt. eigenvalues --    5.30599   5.31555   5.32921   5.33754   5.35962
 Alpha virt. eigenvalues --    5.36781   5.37598   5.38025   5.39415   5.41516
 Alpha virt. eigenvalues --    5.44604   5.46147   5.47130   5.47211   5.47736
 Alpha virt. eigenvalues --    5.49559   5.51575   5.54048   5.56654   5.58052
 Alpha virt. eigenvalues --    5.60008   5.60981   5.65760   5.66155   5.77529
 Alpha virt. eigenvalues --    5.78025   5.78975   5.79406   6.01867   6.02150
 Alpha virt. eigenvalues --    6.07830   6.08602   6.09258   6.11131   6.22285
 Alpha virt. eigenvalues --    6.22577   6.22924   6.24470   6.25432   6.28676
 Alpha virt. eigenvalues --    6.32204   6.33623   6.35172   6.35372   6.36489
 Alpha virt. eigenvalues --    6.37330   6.38295   6.39347   6.39776   6.41597
 Alpha virt. eigenvalues --    6.47005   6.52490   6.53994   6.56471   6.57207
 Alpha virt. eigenvalues --    6.57556   6.57895   6.58422   6.61431   6.61654
 Alpha virt. eigenvalues --    6.62145   6.65788   6.66251   6.67796   6.70681
 Alpha virt. eigenvalues --    6.70976   6.72785   6.72907   6.73858   6.74389
 Alpha virt. eigenvalues --    6.74923   6.76276   6.78665   6.80544   6.80890
 Alpha virt. eigenvalues --    6.83040   6.88784   6.89593   6.93177   6.95963
 Alpha virt. eigenvalues --    6.97182   6.99858   7.00282   7.02672   7.04457
 Alpha virt. eigenvalues --    7.09216   7.17712   7.18026   7.23846   7.73911
 Alpha virt. eigenvalues --    7.80549   7.95006   8.00196   8.06073   8.15608
 Alpha virt. eigenvalues --    8.20932  10.94484  11.32253  16.84181  16.95180
 Alpha virt. eigenvalues --   22.27062  22.29481  22.34115  22.35357  23.13852
 Alpha virt. eigenvalues --   23.14298  26.16939  32.22423  32.24020  43.50760
 Alpha virt. eigenvalues --   43.58569  43.62727  43.65255  43.66996  43.68320
 Alpha virt. eigenvalues --   43.69153  43.73147  43.75689  43.82504 257.09715
  Beta  occ. eigenvalues --  -77.44604 -77.41614 -19.39662 -19.39196 -19.35051
  Beta  occ. eigenvalues --  -19.34922 -19.34453 -19.32774 -19.32061 -19.29403
  Beta  occ. eigenvalues --  -19.27529 -19.27095 -14.53346 -14.52625 -10.52342
  Beta  occ. eigenvalues --  -10.51838 -10.41473 -10.40660 -10.39063 -10.37726
  Beta  occ. eigenvalues --   -6.85212  -6.82219  -4.97310  -4.97105  -4.97007
  Beta  occ. eigenvalues --   -4.94311  -4.94088  -4.94051  -1.39860  -1.27965
  Beta  occ. eigenvalues --   -1.27494  -1.21322  -1.19238  -1.18739  -1.18314
  Beta  occ. eigenvalues --   -1.15450  -1.11682  -1.11095  -1.07906  -1.06995
  Beta  occ. eigenvalues --   -1.06060  -0.89969  -0.89120  -0.82723  -0.81497
  Beta  occ. eigenvalues --   -0.81218  -0.80943  -0.80399  -0.76379  -0.75534
  Beta  occ. eigenvalues --   -0.73296  -0.70306  -0.67999  -0.66732  -0.66241
  Beta  occ. eigenvalues --   -0.66190  -0.65654  -0.64383  -0.63496  -0.62610
  Beta  occ. eigenvalues --   -0.61858  -0.60866  -0.59904  -0.59519  -0.58672
  Beta  occ. eigenvalues --   -0.56962  -0.56346  -0.55907  -0.54956  -0.54271
  Beta  occ. eigenvalues --   -0.53954  -0.53312  -0.52602  -0.52494  -0.52119
  Beta  occ. eigenvalues --   -0.51407  -0.49844  -0.49177  -0.48708  -0.48232
  Beta  occ. eigenvalues --   -0.46403  -0.46105  -0.45463  -0.44847  -0.44604
  Beta  occ. eigenvalues --   -0.44037  -0.43664  -0.42499  -0.42295  -0.40746
  Beta  occ. eigenvalues --   -0.40366  -0.39225
  Beta virt. eigenvalues --   -0.15364  -0.13963  -0.13535  -0.13228  -0.12342
  Beta virt. eigenvalues --   -0.11847  -0.10253  -0.09524  -0.09198  -0.09067
  Beta virt. eigenvalues --   -0.07692  -0.06433  -0.05379  -0.04939  -0.04497
  Beta virt. eigenvalues --   -0.03880  -0.03725  -0.03297  -0.03191  -0.03087
  Beta virt. eigenvalues --   -0.02523  -0.01941  -0.01671  -0.01271  -0.00677
  Beta virt. eigenvalues --   -0.00404  -0.00229   0.00735   0.01075   0.01271
  Beta virt. eigenvalues --    0.01678   0.01835   0.02110   0.02589   0.03901
  Beta virt. eigenvalues --    0.04455   0.04830   0.05259   0.05285   0.05705
  Beta virt. eigenvalues --    0.06623   0.07331   0.07515   0.08230   0.08764
  Beta virt. eigenvalues --    0.08904   0.10338   0.10758   0.10898   0.12262
  Beta virt. eigenvalues --    0.13360   0.13624   0.13985   0.14148   0.15209
  Beta virt. eigenvalues --    0.15783   0.16794   0.17353   0.18234   0.18414
  Beta virt. eigenvalues --    0.18847   0.18895   0.19325   0.19588   0.20760
  Beta virt. eigenvalues --    0.21268   0.22280   0.23126   0.23633   0.24303
  Beta virt. eigenvalues --    0.24460   0.24890   0.25250   0.25721   0.26155
  Beta virt. eigenvalues --    0.26275   0.26773   0.27939   0.28583   0.28935
  Beta virt. eigenvalues --    0.29408   0.29741   0.29851   0.30244   0.30337
  Beta virt. eigenvalues --    0.31043   0.31323   0.32070   0.32965   0.33370
  Beta virt. eigenvalues --    0.33458   0.33682   0.34035   0.34513   0.34715
  Beta virt. eigenvalues --    0.35724   0.36562   0.36718   0.36987   0.37265
  Beta virt. eigenvalues --    0.37713   0.38529   0.38957   0.39211   0.39634
  Beta virt. eigenvalues --    0.39828   0.40042   0.40502   0.41102   0.41937
  Beta virt. eigenvalues --    0.42216   0.42524   0.43051   0.43540   0.43977
  Beta virt. eigenvalues --    0.44737   0.45061   0.46026   0.46355   0.46810
  Beta virt. eigenvalues --    0.47365   0.47560   0.48534   0.49633   0.50383
[...]
 01486,0.00000723,-0.00004943,-0.00127230,-0.00071243,-0.00040217,0.000
 55338,0.00028394,0.00015194,0.00007977,0.00020921,0.00037011,0.0004128
 4,0.00004385,0.00011315,0.00013210,-0.00006219,-0.02099888,-0.00568319
 ,-0.01494304,0.12607667,0.02744353,0.13844638,-0.00009611,-0.00001007,
 -0.00004610,0.00000487,-0.00000245,-0.00002725,0.00000687,-0.00004896,
 0.00005438,0.00002961,0.00002104,0.00001619,0.00000700,-0.00002524,0.0
 0005520,0.00005982,-0.00013079,0.00007648,-0.00018838,0.00123631,-0.00
 067187,-0.00050632,-0.00045979,0.00038742,0.00061456,-0.00078917,0.000
 85320,0.00008267,-0.00020639,0.00008890,0.00077487,-0.00002068,-0.0005
 1948,-0.00000146,0.00051540,-0.00300628,-0.00001076,-0.00001169,-0.000
 01748,0.00004813,0.00000128,0.00000186,-0.00000274,-0.00000059,0.00000
 733,-0.00001735,0.00000294,-0.00000326,0.00006740,0.00001622,0.0000464
 4,-0.00000231,0.00000300,0.00005864,0.00066822,-0.00065384,0.00013641,
 -0.00055803,0.00036775,-0.00018481,-0.00029273,-0.00038724,0.00058000,
 -0.00740608,-0.00299519,0.03749166,-0.03154337,0.02257599,-0.03798937,
 -0.00113718,-0.00217420,-0.00563555,0.00033585,0.00043237,0.00143137,-
 0.00095792,-0.00035433,-0.00078131,-0.00129312,0.00131238,-0.00067321,
 0.00058001,0.00026462,-0.00081921,-0.00000872,-0.00001859,-0.00007928,
 -0.00454307,0.00323019,0.00261701,0.00158875,-0.00096218,0.00014058,0.
 04343465,-0.00004917,-0.00000038,-0.00001693,-0.00000509,-0.00000291,0
 .00000124,0.00004085,-0.00001206,0.00000051,0.00001422,0.00001273,0.00
 000689,-0.00001054,-0.00003021,0.00002108,0.00000477,0.00001250,0.0000
 0159,-0.00004431,-0.00006965,0.00015577,0.00022872,0.00002442,-0.00023
 766,-0.00005775,-0.00013793,-0.00007445,0.00005277,-0.00001063,-0.0000
 4990,-0.00042328,0.00005287,0.00038247,-0.00002224,0.00061474,-0.00145
 210,-0.00000700,-0.00000121,-0.00000828,0.00000618,0.00000033,-0.00000
 404,0.00000300,0.00000021,0.00000152,-0.00000306,0.00000179,0.00000100
 ,-0.00002434,-0.00003781,-0.00001870,0.00000229,-0.00000247,-0.0000006
 7,0.00241642,0.00217880,-0.00180351,-0.00013037,-0.00081190,0.00020438
 ,-0.00129040,-0.00113526,0.00093633,-0.00216377,0.00157051,-0.01338144
 ,0.01680365,-0.04694517,0.03096489,0.00403659,-0.01348557,0.03907555,-
 0.00053039,-0.00495304,-0.00341845,-0.00048767,0.00108649,-0.00034532,
 0.00156274,-0.00099060,0.00142525,-0.00069274,0.00037300,0.00100226,0.
 00010287,-0.00006115,0.00001347,0.00116275,-0.00082775,-0.00054834,0.0
 0098403,0.00032923,0.00039104,-0.02122546,0.06109636,-0.00017375,0.000
 03392,-0.00002373,-0.00001781,-0.00002045,0.00000427,0.00007102,-0.000
 05992,0.00002133,0.00009991,0.00003346,-0.00000353,0.00019020,-0.00000
 406,0.00003386,0.00002098,0.00000399,0.00001318,-0.00018028,0.00038840
 ,-0.00007290,-0.00007082,-0.00013960,0.00005626,0.00022108,-0.00029745
 ,-0.00000705,0.00008866,-0.00009031,-0.00004807,0.00013461,0.00001626,
 -0.00011610,-0.00106292,-0.00001332,-0.00135040,-0.00001590,-0.0000149
 3,0.00000584,-0.00000415,0.00000661,-0.00001054,0.00000742,0.00000025,
 0.00000302,-0.00000477,0.00000123,0.00000238,0.00001079,0.00000782,0.0
 0000356,0.00000558,-0.00000933,0.00001106,0.00149265,0.00034366,-0.001
 18564,-0.00032298,-0.00002347,0.00001258,-0.00034941,-0.00021609,0.000
 22184,-0.00389724,0.00014532,-0.01373410,0.00059868,0.05590189,-0.4137
 6642,-0.00339334,-0.00098498,-0.00515583,-0.00039967,0.00070728,0.0011
 9914,-0.00004560,0.00002637,0.00011294,-0.00013045,0.00014486,-0.00025
 672,0.00001903,-0.00012039,0.00015991,0.00008266,-0.00006365,0.0000792
 2,0.00151149,-0.00165500,0.00060219,-0.00071314,0.00050958,0.00234336,
 0.00572724,-0.05316508,0.42940449,0.00013290,0.00004809,0.00000757,0.0
 0004373,0.00002127,-0.00001137,-0.00005972,0.00000641,-0.00000100,-0.0
 0008693,-0.00005704,0.00000749,-0.00009692,-0.00002301,-0.00002127,-0.
 00000723,0.00008274,-0.00001353,0.00074834,-0.00101534,0.00030307,0.00
 004794,0.00036421,-0.00004843,-0.00090427,0.00013681,-0.00021410,-0.00
 021221,0.00020572,0.00008506,-0.00011703,-0.00025621,0.00003654,0.0003
 0556,0.00079092,0.00006942,0.00001467,0.00001760,-0.00000314,0.0000132
 8,-0.00000109,0.00001106,-0.00001104,-0.00000506,-0.00000430,0.0000109
 9,-0.00000214,0.00000148,0.00001348,-0.00002832,-0.00000003,-0.0000218
 0,-0.00001117,-0.00003140,-0.00006435,0.00010133,-0.00001655,0.0000600
 6,-0.00012219,-0.00004693,-0.00013430,0.00009161,0.00016985,0.00343466
 ,0.00046390,0.00115286,0.00914908,0.00427968,0.00239760,-0.21640807,-0
 .10824528,-0.04960373,-0.00666034,-0.00497655,0.00283996,0.00028903,0.
 00012702,-0.00117078,0.00063034,0.00165167,-0.00070936,0.00128540,0.00
 059306,0.00080939,-0.00001877,0.00002096,-0.00000504,0.00001149,-0.000
 09527,-0.00004419,0.00023899,-0.00129392,-0.00100607,0.00015282,-0.000
 65147,0.00051324,0.22537285,0.00018655,-0.00015082,0.00005194,-0.00002
 832,0.00000844,0.00001498,-0.00003184,0.00011454,-0.00002957,-0.000090
 69,0.00001163,-0.00001116,-0.00026414,0.00004851,-0.00005783,-0.000022
 23,-0.00006309,-0.00001948,-0.00045214,-0.00005912,-0.00007775,0.00026
 748,0.00005662,-0.00004529,0.00044505,0.00044319,0.00006103,0.00010147
 ,-0.00000359,-0.00003573,-0.00025075,0.00015321,0.00010888,0.00108008,
 -0.00091787,0.00081393,0.00001427,0.00000810,0.00000026,-0.00000800,-0
 .00000741,0.00000923,0.00000193,0.00000661,-0.00000279,-0.00000045,-0.
 00000240,-0.00000616,-0.00001939,0.00001621,-0.00001540,0.00000763,0.0
 0002581,0.00000905,-0.00076952,-0.00033054,-0.00020958,0.00040798,-0.0
 0028133,-0.00006318,0.00080222,-0.00018207,-0.00037501,-0.00386499,0.0
 0262720,0.00160640,-0.02201409,-0.03328979,-0.00424852,-0.10436003,-0.
 11345747,-0.02988276,0.00083686,0.00237271,-0.00336988,0.00084856,0.00
 181250,0.00163550,-0.00033947,-0.00100319,-0.00009702,0.00032369,-0.00
 002102,0.00064951,-0.00002020,0.00003994,0.00006049,0.00021458,-0.0001
 9845,-0.00035559,0.00082250,-0.00027203,0.00017395,-0.00000657,0.00067
 407,-0.00108147,0.11913739,0.13604735,0.00006854,0.00002306,-0.0000080
 6,0.00003071,0.00003910,-0.00002183,-0.00008486,0.00001102,0.00004286,
 -0.00004762,-0.00003281,0.00000707,-0.00005922,-0.00001662,-0.00000475
 ,0.00001833,-0.00004745,0.00004289,-0.00013589,0.00009875,-0.00039634,
 0.00004715,-0.00002049,0.00009677,0.00040447,0.00010111,0.00033133,0.0
 0001502,-0.00000888,0.00004300,0.00013620,-0.00005073,-0.00008922,0.00
 000229,0.00078395,-0.00098128,0.00000684,0.00000962,-0.00000366,0.0000
 8905,-0.00000227,0.00002450,-0.00001613,-0.00000632,0.00000340,-0.0000
 1013,-0.00000550,0.00000139,0.00006023,-0.00006556,0.00001466,-0.00002
 351,0.00000147,0.00001977,-0.00012844,-0.00042726,-0.00031677,-0.00002
 281,0.00017377,0.00004168,0.00028253,0.00031280,0.00027244,0.00042785,
 -0.00073925,-0.00028757,0.00624632,0.00700076,0.00340541,-0.05600544,-
 0.03548678,-0.05960227,-0.02007398,-0.01453566,-0.00077407,-0.00285320
 ,-0.00322489,-0.00664966,0.00122494,0.00319970,-0.00087186,0.00191642,
 0.00094569,0.00195742,0.00000051,-0.00001890,-0.00000483,-0.00019406,-
 0.00038138,-0.00025751,-0.00025655,-0.00022919,-0.00009181,0.00110561,
 0.00036171,0.00054478,0.05260743,0.03205721,0.05908855,-0.00006073,-0.
 00007698,0.00000126,-0.00005003,0.00000419,0.00000100,-0.00000174,0.00
 004594,0.00008823,0.00004863,0.00004774,-0.00000655,0.00002199,0.00003
 693,0.00000532,0.00005515,-0.00008678,0.00002580,-0.00187122,0.0003390
 7,-0.00071666,-0.00029948,-0.00007323,0.00030868,-0.00084408,0.0002674
 1,0.00072920,0.00026605,-0.00007328,-0.00005224,0.00037620,0.00049759,
 -0.00082068,0.00033934,-0.00020991,-0.00028647,-0.00000861,-0.00001278
 ,0.00000108,0.00004621,0.00000506,0.00000689,0.00000348,0.00000123,0.0
 0000124,-0.00001485,-0.00000394,-0.00000330,0.00004408,0.00001302,-0.0
 0000427,0.00000657,0.00001919,0.00005061,-0.00028068,-0.00032952,-0.00
 013472,-0.00006797,0.00020463,0.00006383,0.00014611,0.00016818,0.00005
 531,0.00118000,0.00092461,-0.00019361,-0.00288176,0.00279598,0.0014507
 3,-0.19595161,0.05925182,0.11564953,0.00484265,-0.00232286,-0.00207426
 ,-0.00161879,-0.00048539,-0.00016085,-0.00005700,-0.00043657,-0.000081
 25,0.00139832,0.00132492,-0.00137662,-0.00000531,-0.00001903,0.0000041
 0,0.00003880,-0.00000354,-0.00024671,0.00007403,-0.00023876,-0.0000070
 3,0.00007346,0.00033464,0.00000144,-0.01713697,0.00709254,0.01520118,0
 .21218724,-0.00005549,-0.00006234,-0.00000447,-0.00002753,-0.00001235,
 -0.00000095,0.00003121,-0.00001303,-0.00004398,0.00004013,0.00003997,-
 0.00000390,0.00001835,0.00003028,0.00001436,0.00000643,-0.00023365,0.0
 0007502,-0.00024646,0.00236524,-0.00033974,-0.00019660,-0.00089764,-0.
 00027067,0.00110896,-0.00092665,0.00066490,0.00014923,-0.00036295,-0.0
 0005129,0.00020205,-0.00004162,0.00097613,0.00026746,-0.00110499,-0.00
 054062,-0.00000629,-0.00001260,-0.00000101,-0.00000125,-0.00001770,-0.
 00000442,0.00000533,0.00000511,0.00000596,-0.00001362,0.00000718,-0.00
 000069,-0.00000309,0.00001244,0.00001339,0.00001607,0.00002025,0.00006
 102,0.00200808,0.00099478,0.00000171,0.00010062,-0.00100031,-0.0002997
 2,-0.00064351,-0.00032100,-0.00003556,-0.00024603,-0.00571511,0.001786
 98,0.02696711,-0.01737182,-0.02066310,0.05355846,-0.06582848,-0.040749
 97,-0.00402051,0.00093916,-0.00067190,0.00040362,0.00044378,0.00014995
 ,0.00049766,-0.00096047,0.00028588,-0.00029588,-0.00065105,0.00252365,
 0.00008746,-0.00007141,-0.00000967,-0.00036205,-0.00013670,0.00007617,
 0.00034166,-0.00035052,-0.00011431,0.00055826,0.00140910,-0.00033308,-
 0.01138243,0.00565021,0.00993001,-0.06895872,0.08389543,-0.00003503,-0
 .00013501,0.00001112,-0.00006129,0.00002032,0.00001468,-0.00000410,0.0
 0010670,0.00007320,0.00004864,0.00006704,-0.00001090,-0.00000255,0.000
 07323,-0.00000316,0.00000574,-0.00007696,-0.00002316,-0.00182925,0.000
 16399,-0.00044957,0.00061122,-0.00000343,0.00009490,0.00139437,0.00038
 063,-0.00003119,0.00041085,-0.00012521,-0.00014068,-0.00081744,0.00073
 645,-0.00056191,0.00033011,-0.00084506,-0.00045984,-0.00000734,-0.0000
 1627,0.00000135,0.00006350,0.00000483,0.00001201,0.00000445,0.00000395
 ,0.00000512,-0.00002209,-0.00001001,-0.00000576,-0.00000322,-0.0000374
 7,-0.00003775,0.00000795,0.00002351,0.00003641,-0.00032392,0.00006955,
 0.00034152,-0.00006219,0.00018540,0.00002848,-0.00005984,-0.00001260,-
 0.00006526,-0.00056174,0.00202211,0.00040756,-0.00731635,0.00562262,0.
 00449093,0.12623827,-0.05143011,-0.13828216,0.02125989,-0.00811458,-0.
 01146883,-0.00375012,-0.00023396,-0.00033451,-0.00113208,-0.00038633,0
 .00347245,0.00085130,0.00295911,-0.00496143,-0.00001952,0.00005757,-0.
 00001717,-0.00007988,0.00004149,0.00007937,-0.00000858,-0.00021302,0.0
 0005319,-0.00037331,-0.00044284,0.00087893,-0.00772851,0.00276117,0.00
 496375,-0.12709800,0.04739715,0.14268357,0.00031395,0.00050226,-0.0001
 6766,0.00000077,-0.00030201,-0.00001279,-0.00026247,0.00000064,-0.0001
 8351,-0.00028225,-0.00024554,0.00007331,-0.00010305,-0.00015363,0.0000
 3146,-0.00012159,-0.00079687,0.00038499,-0.01414536,0.03157328,0.01202
 136,0.00557821,-0.00136362,-0.00386308,-0.00475053,0.00109232,0.000833
 62,-0.03629906,0.07447141,0.02945120,-0.00301128,-0.00007893,0.0020619
 7,0.00001578,0.00028476,-0.00011813,0.00004047,0.00003517,-0.00001386,
 0.00000496,-0.00006176,-0.00000675,0.00001324,-0.00008879,-0.00015116,
 0.00038352,0.00030011,0.00030167,0.00007606,0.00000350,0.00014228,0.00
 001576,0.00000521,0.00009483,-0.00008286,0.00017408,0.00003812,0.00009
 241,-0.00010808,-0.00002996,0.00003409,-0.00009489,-0.00001220,-0.0000
 9109,-0.00002337,0.00004913,0.00007515,-0.00015045,0.00002992,-0.00003
 922,0.00000412,-0.00002447,-0.00082826,0.00166146,0.00014501,-0.000075
 65,-0.00061312,-0.00004005,0.00210210,-0.00110630,-0.00118033,0.000514
 37,-0.00024679,-0.00020207,-0.00001601,0.00002745,0.00000387,-0.000014
 40,0.00002202,-0.00001359,0.00001381,-0.00000247,-0.00000114,0.0000145
 7,-0.00000354,0.00000436,-0.00000303,-0.00002068,0.00000364,-0.0000473
 7,0.00006766,-0.00005178,0.05102057,-0.00012054,-0.00040203,0.00007747
 ,-0.00025199,0.00014352,0.00010294,0.00008100,0.00009102,0.00005899,0.
 00016337,0.00021486,-0.00001532,-0.00001390,0.00019459,-0.00003010,-0.
 00228992,-0.00012681,0.00173089,0.00412090,-0.00258993,-0.00091149,-0.
 00491672,-0.00399820,0.00217747,-0.00225353,0.00252749,-0.00020028,0.1
 0950304,-0.47388289,-0.12580132,0.00058235,-0.00033740,-0.00066341,0.0
 0056791,-0.00039862,-0.00011022,-0.00003072,-0.00005548,-0.00000757,0.
 00009706,0.00006675,-0.00000180,0.00003189,-0.00000980,-0.00002986,0.0
 0001589,-0.00029090,-0.00018632,0.00010314,0.00030060,0.00070224,-0.00
 002969,0.00015458,-0.00028848,0.00022889,-0.00000990,-0.00001036,-0.00
 013631,0.00006984,0.00002612,-0.00020256,0.00000566,-0.00001827,0.0000
 4892,-0.00003128,-0.00002297,-0.00011665,-0.00003439,0.00000072,-0.000
 00748,0.00000107,-0.00001368,0.00053926,0.00018065,0.00002752,-0.00032
 047,-0.00015032,0.00000563,-0.00053216,0.00002022,0.00022639,-0.000242
 54,-0.00005954,0.00009764,0.00002386,-0.00002343,-0.00000569,0.0000101
 5,0.00000061,0.00000237,-0.00001704,0.00000590,-0.00000211,0.00003301,
 0.00001336,0.00001263,-0.00003789,0.00000448,-0.00000671,0.00004695,0.
 00003440,0.00002456,-0.10471731,0.47832051,-0.00017783,-0.00029202,0.0
 0007521,-0.00019032,-0.00003781,0.00028759,-0.00025956,0.00036576,0.00
 007932,0.00013745,0.00015143,-0.00005024,0.00002117,0.00016650,-0.0000
 4398,0.00399466,0.00078867,-0.00115000,0.00929216,-0.01492500,-0.00746
 489,-0.00415114,-0.00024177,0.00078472,-0.00373364,0.00225883,0.000864
 22,0.03485933,-0.11073200,-0.03053670,0.00110549,0.00003538,-0.0014462
 3,0.00030050,-0.00039321,-0.00000529,-0.00003138,-0.00003618,0.0000236
 8,-0.00003474,0.00000209,-0.00000973,0.00001700,-0.00005847,-0.0000819
 8,0.00004451,-0.00022701,-0.00017377,-0.00038491,-0.00019617,-0.000972
 33,-0.00025782,0.00005259,-0.00049491,0.00015076,-0.00003699,-0.000000
 93,-0.00009788,0.00006026,0.00001308,-0.00013558,0.00002782,-0.0000287
 0,0.00004129,-0.00000694,-0.00002586,-0.00008118,0.00002108,-0.0000417
 5,-0.00004095,0.00000909,-0.00002857,0.00062455,-0.00056334,0.00007408
 ,-0.00016001,0.00013704,0.00004269,-0.00095960,0.00045566,0.00046301,-
 0.00028285,0.00008645,0.00005515,0.00001602,-0.00002047,0.00000426,0.0
 0001306,-0.00001186,0.00000612,-0.00001583,0.00000304,0.00000315,-0.00
 001372,0.00002292,0.00002153,-0.00003733,0.00001194,0.00000419,0.00003
 601,0.00002084,0.00008072,-0.03968097,0.12307768,0.03969819,-0.0000484
 4,-0.00019242,0.00003341,-0.00010919,0.00003245,0.00003798,0.00006640,
 0.00016929,0.00002136,0.00007915,0.00010994,-0.00001750,-0.00000098,0.
 00010302,-0.00002025,-0.00001456,-0.00003291,-0.00004896,-0.00086873,-
 0.00156200,0.00034732,0.00213201,0.00070584,-0.00113539,-0.00005841,0.
 00058776,-0.00011051,0.00042590,0.00018555,-0.00018199,-0.00265394,0.0
 0041437,0.00183864,0.00008353,-0.00024824,-0.00012690,-0.00001328,-0.0
 0002529,0.00000170,0.00002405,-0.00000980,0.00001231,0.00001247,0.0000
 0201,0.00000038,-0.00001192,-0.00001616,-0.00000888,-0.00010600,-0.000
 12546,-0.00008761,0.00000423,0.00003388,0.00000221,0.00022421,-0.00054
 932,-0.00024700,-0.00025013,0.00023351,0.00010846,-0.00004113,0.000159
 97,0.00005914,0.00001004,0.00053617,-0.00017109,-0.00030173,-0.0000244
 9,-0.00013337,-0.00012964,0.00076620,0.00044489,-0.01013644,-0.0314650
 9,0.01214503,-0.00555950,-0.00185175,0.00146340,0.00514756,0.00235897,
 -0.00447393,-0.03143467,-0.05771365,0.02746915,0.00003474,-0.00003238,
 -0.00001447,0.00040219,-0.00043534,0.00039727,-0.00000459,0.00008766,-
 0.00014908,0.00002156,0.00006610,-0.00001878,-0.00001263,-0.00002729,0
 .00001656,0.00004990,0.00002364,0.00012185,-0.00013630,0.00003985,0.00
 007327,0.04317426,-0.00020130,-0.00001769,-0.00001502,-0.00005286,-0.0
 0002856,0.00001519,0.00011705,-0.00002071,0.00001022,0.00012438,0.0000
 6674,-0.00000668,0.00017081,0.00000552,0.00003293,-0.00000017,0.000017
 45,-0.00000162,-0.00047785,0.00001564,-0.00002550,0.00076992,0.0000244
 4,-0.00041075,0.00024147,-0.00009428,0.00001656,0.00023876,-0.00004513
 ,-0.00008368,-0.00094170,0.00025961,0.00068698,-0.00047889,-0.00034800
 ,0.00011244,-0.00002197,-0.00002132,0.00000315,-0.00004336,0.00001229,
 -0.00001751,0.00001598,0.00000570,0.00000391,-0.00000668,0.00000079,-0
 .00000317,-0.00007931,0.00002011,-0.00002202,0.00003029,0.00000393,0.0
 0000695,0.00008547,-0.00034132,-0.00008677,-0.00013697,0.00018184,0.00
 003218,0.00002431,0.00016842,0.00002824,0.00022330,0.00019330,-0.00021
 341,-0.00009950,0.00005848,-0.00001606,0.00185463,0.00004667,-0.001912
 98,-0.00382967,-0.00384560,0.00152481,0.00153453,0.00246331,0.00021452
 ,0.00439666,-0.00393551,-0.00202119,-0.09097518,-0.47807975,0.13393493
 ,0.00002730,-0.00004791,0.00000325,-0.00001682,-0.00036699,0.00022449,
 -0.00002701,-0.00002283,0.00005303,-0.00008732,0.00006518,0.00000906,0
 .00006401,0.00011884,0.00025692,-0.00009039,0.00024505,-0.00063850,-0.
 00004729,0.00005079,0.00002419,0.08769539,0.48319147,0.00015968,0.0000
 4374,0.00002143,0.00005415,0.00000398,-0.00002260,-0.00010568,-0.00003
 620,-0.00004613,-0.00010724,-0.00006862,-0.00000151,-0.00013660,-0.000
 02745,-0.00004551,-0.00004115,-0.00001359,-0.00002702,0.00070487,0.000
 63307,0.00002943,-0.00112954,-0.00034430,0.00054009,-0.00017294,-0.000
 13800,0.00003492,-0.00027608,-0.00006984,0.00004830,0.00135476,-0.0002
 2226,-0.00100769,0.00027965,0.00036124,-0.00001632,0.00001617,0.000021
 42,0.00000697,-0.00000904,-0.00002856,0.00003505,-0.00001987,-0.000003
 59,0.00000201,0.00001304,0.00000970,0.00000413,0.00006536,0.00001736,0
 .00013836,-0.00004642,-0.00001899,0.00000416,-0.00019774,0.00028992,0.
 00009744,0.00014973,-0.00016005,-0.00007903,0.00004219,-0.00016371,-0.
 00004528,-0.00016167,0.00005961,0.00036268,-0.00021566,-0.00048360,0.0
 0008774,0.00357857,-0.00066068,-0.00169292,0.00872827,0.01737729,-0.00
 753712,-0.00280728,-0.00236041,0.00099430,-0.00479669,-0.00028477,0.00
 034554,0.03340702,0.11753983,-0.03720062,-0.00003087,0.00003469,0.0000
 3015,0.00000679,0.00027066,-0.00028996,0.00000772,0.00005404,-0.000072
 53,-0.00003441,-0.00000219,-0.00000464,-0.00029497,-0.00004128,-0.0005
 4437,-0.00041824,0.00015595,-0.00087596,0.00008275,-0.00002532,-0.0000
 2506,-0.03764862,-0.13171908,0.04675157\\0.00001816,-0.00001840,-0.000
 01412,-0.00001213,0.00001247,0.00001380,0.00001595,0.00002731,-0.00000
 416,0.00000104,0.00001051,-0.00000621,-0.00002422,0.00002111,-0.000004
 68,0.00000770,-0.00001251,-0.00000543,-0.00002592,-0.00003637,-0.00001
 612,-0.00000393,0.00004408,0.00001553,0.00000135,-0.00000174,0.0000217
 0,0.00000403,-0.00000636,0.00000249,0.00002154,0.00000228,-0.00001138,
 -0.00001093,-0.00002934,-0.00003179,-0.00000116,0.00000355,-0.00000777
 ,-0.00000810,-0.00000069,-0.00000332,0.00000048,0.00000308,-0.00000779
 ,0.00000613,0.00000119,-0.00000499,0.00000737,0.00000161,0.00000398,-0
 .00000011,0.00000922,-0.00000104,-0.00002191,-0.00001702,-0.00001417,0
 .00000329,-0.00000383,0.00000780,0.00001747,0.00003074,0.00001900,0.00
 000409,-0.00000693,0.00000300,0.00001494,0.00002254,-0.00000147,0.0000
 0549,-0.00000094,0.00000621,-0.00002525,0.00001293,0.00002298,-0.00000
 129,-0.00000431,-0.00000517,0.00000700,-0.00001191,0.00000816,0.000022
 85,-0.00001659,-0.00000051,-0.00000737,-0.00000272,0.00000209,-0.00000
 425,-0.00000471,0.00000292,-0.00000002,-0.00000591,0.00000771,-0.00001
 772,-0.00001847,-0.00000040,0.00000150,-0.00000279,-0.00000219,-0.0000
 0357,-0.00000585,0.00000307,0.00000838,0.00000561,-0.00000204,-0.00000
 090,-0.00000085,0.00000431\\\@
 The archive entry for this job was punched.


 "I COULD HAVE DONE IT IN A MUCH MORE COMPLICATED WAY"
 SAID THE RED QUEEN, IMMENSELY PROUD.

                                      -- LEWIS CARROLL
 Job cpu time:       2 days  3 hours 33 minutes 30.9 seconds.
 Elapsed time:       0 days  1 hours  5 minutes 29.8 seconds.
 File lengths (MBytes):  RWF=   3267 Int=      0 D2E=      0 Chk=     65 Scr=      1
 Normal termination of Gaussian 16 at Mon Jul 29 17:54:59 2024.
