 Entering Gaussian System, Link 0=g16
 Initial command:
 /apps/gaussian/g16c01/g16/l1.exe "/jobfs/121947518.gadi-pbs/Gau-1596068.inp" -scrdir="/jobfs/121947518.gadi-pbs/"
 Entering Link 1 = /apps/gaussian/g16c01/g16/l1.exe PID=   1596069.
  
 Copyright (c) 1988-2019, Gaussian, Inc.  All Rights Reserved.
  
 This is part of the Gaussian(R) 16 program.  It is based on
 the Gaussian(R) 09 system (copyright 2009, Gaussian, Inc.),
 the Gaussian(R) 03 system (copyright 2003, Gaussian, Inc.),
 the Gaussian(R) 98 system (copyright 1998, Gaussian, Inc.),
 the Gaussian(R) 94 system (copyright 1995, Gaussian, Inc.),
 the Gaussian 92(TM) system (copyright 1992, Gaussian, Inc.),
 the Gaussian 90(TM) system (copyright 1990, Gaussian, Inc.),
 the Gaussian 88(TM) system (copyright 1988, Gaussian, Inc.),
 the Gaussian 86(TM) system (copyright 1986, Carnegie Mellon
 University), and the Gaussian 82(TM) system (copyright 1983,
 Carnegie Mellon University). Gaussian is a federally registered
 trademark of Gaussian, Inc.
  
 This software contains proprietary and confidential information,
 including trade secrets, belonging to Gaussian, Inc.
  
 This software is provided under written license and may be
 used, copied, transmitted, or stored only in accord with that
 written license.
  
 The following legend is applicable only to US Government
 contracts under FAR:
  
                    RESTRICTED RIGHTS LEGEND
  
 Use, reproduction and disclosure by the US Government is
 subject to restrictions as set forth in subparagraphs (a)
 and (c) of the Commercial Computer Software - Restricted
 Rights clause in FAR 52.227-19.
  
 Gaussian, Inc.
 340 Quinnipiac St., Bldg. 40, Wallingford CT 06492
  
  
 ---------------------------------------------------------------
 Warning -- This program may not be used in any manner that
 competes with the business of Gaussian, Inc. or will provide
 assistance to any competitor of Gaussian, Inc.  The licensee
 of this program is prohibited from giving any competitor of
 Gaussian, Inc. access to this program.  By using this program,
 the user acknowledges that Gaussian, Inc. is engaged in the
 business of creating and licensing software in the field of
 computational chemistry and represents and warrants to the
 licensee that it is not a competitor of Gaussian, Inc. and that
 it will not use this program in any manner prohibited above.
 ---------------------------------------------------------------
  

 Cite this work as:
 Gaussian 16, Revision C.01,
 M. J. Frisch, G. W. Trucks, H. B. Schlegel, G. E. Scuseria, 
 M. A. Robb, J. R. Cheeseman, G. Scalmani, V. Barone, 
 G. A. Petersson, H. Nakatsuji, X. Li, M. Caricato, A. V. Marenich, 
 J. Bloino, B. G. Janesko, R. Gomperts, B. Mennucci, H. P. Hratchian, 
 J. V. Ortiz, A. F. Izmaylov, J. L. Sonnenberg, D. Williams-Young, 
 F. Ding, F. Lipparini, F. Egidi, J. Goings, B. Peng, A. Petrone, 
 T. Henderson, D. Ranasinghe, V. G. Zakrzewski, J. Gao, N. Rega, 
 G. Zheng, W. Liang, M. Hada, M. Ehara, K. Toyota, R. Fukuda, 
 J. Hasegawa, M. Ishida, T. Nakajima, Y. Honda, O. Kitao, H. Nakai, 
 T. Vreven, K. Throssell, J. A. Montgomery, Jr., J. E. Peralta, 
 F. Ogliaro, M. J. Bearpark, J. J. Heyd, E. N. Brothers, K. N. Kudin, 
 V. N. Staroverov, T. A. Keith, R. Kobayashi, J. Normand, 
 K. Raghavachari, A. P. Rendell, J. C. Burant, S. S. Iyengar, 
 J. Tomasi, M. Cossi, J. M. Millam, M. Klene, C. Adamo, R. Cammi, 
 J. W. Ochterski, R. L. Martin, K. Morokuma, O. Farkas, 
 J. B. Foresman, and D. J. Fox, Gaussian, Inc., Wallingford CT, 2019.
 
 ******************************************
 Gaussian 16:  ES64L-G16RevC.01  3-Jul-2019
                29-Jul-2024 
 ******************************************
 %mem=60gb
 %nprocs=48
 Will use up to   48 processors via shared memory.
 %RWF=/scratch/gy60/or4187/rwf/gasphase_globalmin_actual_cadimer.rwf
 %NoSave
 %Chk=gasphase_globalmin_actual_cadimer.chk
 ----------------------------------------------------------------------
 #UM06/Def2TZVP OPT Freq=Noraman INT(grid=ultrafine) EmpiricalDispersio
 n=GD3 SCF=XQC Pop=NPA
 ----------------------------------------------------------------------
 1/18=20,19=15,26=4,38=1/1,3;
 2/9=110,12=2,17=6,18=5,40=1/2;
 3/5=44,7=101,11=2,25=1,30=1,71=1,74=-54,75=-5,116=2,124=31/1,2,3;
 4//1;
 5/5=2,8=3,13=1,38=5/2,8;
 6/7=2,8=2,9=2,10=2,28=1,40=-1/1,7;
 7//1,2,3,16;
 1/18=20,19=15,26=4/3(2);
 2/9=110/2;
 99//99;
 2/9=110/2;
 3/5=44,7=101,11=2,25=1,30=1,71=1,74=-54,75=-5,116=2,124=31/1,2,3;
 4/5=5,16=3,69=1/1;
 5/5=2,8=3,13=1,38=5/2,8;
 7//1,2,3,16;
 1/18=20,19=15,26=4/3(-5);
 2/9=110/2;
 6/7=2,8=2,9=2,10=2,19=2,28=1,40=-1/1,7;
 99/9=1/99;
 -----------------------------------------
 gasphase_globalmin_actual_cadimer.optfreq
 -----------------------------------------
 Symbolic Z-matrix:
 Charge =  1 Multiplicity = 1
 C                    -2.65247  -2.78717  -0.12891 
 C                    -3.11152  -1.56564  -0.90244 
 N                    -1.96334  -0.78475  -1.38173 
 O                    -3.62368  -3.6656    0.06092 
 O                    -1.51288  -2.94449   0.30523 
 C                    -2.1811    0.67798  -1.39199 
 P                    -2.06321   1.37588   0.30581 
 O                    -1.62848   2.87793   0.22102 
 O                    -1.1979    0.4688    1.15937 
 O                    -3.60258   1.41621   0.78233 
 H                    -0.63152   3.0211   -0.07942 
 Ca                    0.15205  -1.17616   0.19868 
 H                    -3.29648  -4.41257   0.60161 
 H                    -1.73748  -1.0708   -2.33367 
 H                    -3.79703  -1.87726  -1.69984 
 H                    -3.70792  -0.96618  -0.20315 
 H                    -1.35979   1.12771  -1.95667 
 H                    -3.13062   0.98005  -1.85193 
 C                     3.23993  -2.05665   0.40399 
 O                     4.38039  -2.69659   0.20038 
 O                     2.14099  -2.56617   0.18587 
 C                     3.44121  -0.63633   0.89123 
 N                     2.20034  -0.09084   1.46342 
 C                     2.03209   1.36771   1.24175 
 P                     1.60901   1.75716  -0.52316 
 O                     1.0359    0.47301  -1.12534 
 O                     0.76872   3.02318  -0.56013 
 O                     3.05465   2.03911  -1.21862 
 H                     4.20103  -3.58631  -0.16476 
 H                     3.73462  -0.05042   0.01107 
 H                     4.29383  -0.60455   1.58024 
 H                     2.21098  -0.25404   2.47013 
 H                     2.90923   1.95049   1.55184 
 H                     1.17813   1.69096   1.84281 
 H                    -3.8063    2.08643   1.45865 
 H                     3.14505   2.95711  -1.52717 
 

 GradGradGradGradGradGradGradGradGradGradGradGradGradGradGradGradGradGrad
 Berny optimization.
 Initialization pass.
                           ----------------------------
                           !    Initial Parameters    !
                           ! (Angstroms and Degrees)  !
 --------------------------                            --------------------------
 ! Name  Definition              Value          Derivative Info.                !
 --------------------------------------------------------------------------------
 ! R1    R(1,2)                  1.517          estimate D2E/DX2                !
 ! R2    R(1,4)                  1.3232         estimate D2E/DX2                !
 ! R3    R(1,5)                  1.2296         estimate D2E/DX2                !
 ! R4    R(2,3)                  1.4689         estimate D2E/DX2                !
 ! R5    R(2,15)                 1.0968         estimate D2E/DX2                !
 ! R6    R(2,16)                 1.0973         estimate D2E/DX2                !
 ! R7    R(3,6)                  1.4789         estimate D2E/DX2                !
 ! R8    R(3,12)                 2.6694         estimate D2E/DX2                !
 ! R9    R(3,14)                 1.0193         estimate D2E/DX2                !
 ! R10   R(4,13)                 0.9785         estimate D2E/DX2                !
 ! R11   R(5,12)                 2.4311         estimate D2E/DX2                !
 ! R12   R(6,7)                  1.8394         estimate D2E/DX2                !
 ! R13   R(6,17)                 1.0935         estimate D2E/DX2                !
 ! R14   R(6,18)                 1.0974         estimate D2E/DX2                !
 ! R15   R(7,8)                  1.566          estimate D2E/DX2                !
 ! R16   R(7,9)                  1.5166         estimate D2E/DX2                !
 ! R17   R(7,10)                 1.6119         estimate D2E/DX2                !
 ! R18   R(7,12)                 3.3811         estimate D2E/DX2                !
 ! R19   R(8,11)                 1.051          estimate D2E/DX2                !
 ! R20   R(9,12)                 2.3348         estimate D2E/DX2                !
 ! R21   R(10,35)                0.9737         estimate D2E/DX2                !
 ! R22   R(12,21)                2.4266         estimate D2E/DX2                !
 ! R23   R(12,23)                2.6406         estimate D2E/DX2                !
 ! R24   R(12,25)                3.3538         estimate D2E/DX2                !
 ! R25   R(12,26)                2.2921         estimate D2E/DX2                !
 ! R26   R(19,20)                1.3235         estimate D2E/DX2                !
 ! R27   R(19,21)                1.2308         estimate D2E/DX2                !
 ! R28   R(19,22)                1.515          estimate D2E/DX2                !
 ! R29   R(20,29)                0.9783         estimate D2E/DX2                !
 ! R30   R(22,23)                1.4713         estimate D2E/DX2                !
 ! R31   R(22,30)                1.0973         estimate D2E/DX2                !
 ! R32   R(22,31)                1.0967         estimate D2E/DX2                !
 ! R33   R(23,24)                1.4849         estimate D2E/DX2                !
 ! R34   R(23,32)                1.0199         estimate D2E/DX2                !
 ! R35   R(24,25)                1.8562         estimate D2E/DX2                !
 ! R36   R(24,33)                1.0978         estimate D2E/DX2                !
 ! R37   R(24,34)                1.0932         estimate D2E/DX2                !
 ! R38   R(25,26)                1.5297         estimate D2E/DX2                !
 ! R39   R(25,27)                1.5199         estimate D2E/DX2                !
 ! R40   R(25,28)                1.6288         estimate D2E/DX2                !
 ! R41   R(28,36)                0.9727         estimate D2E/DX2                !
 ! A1    A(2,1,4)              112.6818         estimate D2E/DX2                !
 ! A2    A(2,1,5)              124.2998         estimate D2E/DX2                !
 ! A3    A(4,1,5)              123.0014         estimate D2E/DX2                !
 ! A4    A(1,2,3)              110.9721         estimate D2E/DX2                !
 ! A5    A(1,2,15)             109.3346         estimate D2E/DX2                !
 ! A6    A(1,2,16)             106.2259         estimate D2E/DX2                !
 ! A7    A(3,2,15)             113.7258         estimate D2E/DX2                !
 ! A8    A(3,2,16)             110.0204         estimate D2E/DX2                !
 ! A9    A(15,2,16)            106.1908         estimate D2E/DX2                !
 ! A10   A(2,3,6)              114.3911         estimate D2E/DX2                !
 ! A11   A(2,3,12)             110.3827         estimate D2E/DX2                !
 ! A12   A(2,3,14)             109.1915         estimate D2E/DX2                !
 ! A13   A(6,3,12)             105.4154         estimate D2E/DX2                !
 ! A14   A(6,3,14)             107.6803         estimate D2E/DX2                !
 ! A15   A(12,3,14)            109.6434         estimate D2E/DX2                !
 ! A16   A(1,4,13)             109.9155         estimate D2E/DX2                !
 ! A17   A(1,5,12)             121.7473         estimate D2E/DX2                !
 ! A18   A(3,6,7)              111.0647         estimate D2E/DX2                !
 ! A19   A(3,6,17)             107.4442         estimate D2E/DX2                !
 ! A20   A(3,6,18)             113.7372         estimate D2E/DX2                !
 ! A21   A(7,6,17)             105.8114         estimate D2E/DX2                !
 ! A22   A(7,6,18)             109.7463         estimate D2E/DX2                !
 ! A23   A(17,6,18)            108.6771         estimate D2E/DX2                !
 ! A24   A(6,7,8)              109.374          estimate D2E/DX2                !
 ! A25   A(6,7,9)              109.2155         estimate D2E/DX2                !
 ! A26   A(6,7,10)             102.7762         estimate D2E/DX2                !
 ! A27   A(6,7,12)              74.1196         estimate D2E/DX2                !
 ! A28   A(8,7,9)              116.4716         estimate D2E/DX2                !
 ! A29   A(8,7,10)             104.8991         estimate D2E/DX2                !
 ! A30   A(8,7,12)             122.7091         estimate D2E/DX2                !
 ! A31   A(9,7,10)             113.1697         estimate D2E/DX2                !
 ! A32   A(10,7,12)            130.8399         estimate D2E/DX2                !
 ! A33   A(7,8,11)             114.1707         estimate D2E/DX2                !
 ! A34   A(7,10,35)            114.9829         estimate D2E/DX2                !
 ! A35   A(3,12,5)              65.7885         estimate D2E/DX2                !
 ! A36   A(3,12,7)              52.3292         estimate D2E/DX2                !
 ! A37   A(3,12,9)              71.4647         estimate D2E/DX2                !
 ! A38   A(3,12,21)            136.9205         estimate D2E/DX2                !
 ! A39   A(3,12,23)            146.9285         estimate D2E/DX2                !
 ! A40   A(3,12,25)             95.0825         estimate D2E/DX2                !
 ! A41   A(3,12,26)             81.8419         estimate D2E/DX2                !
 ! A42   A(5,12,7)              95.6775         estimate D2E/DX2                !
 ! A43   A(5,12,9)              95.6507         estimate D2E/DX2                !
 ! A44   A(5,12,21)             98.3312         estimate D2E/DX2                !
 ! A45   A(5,12,23)            144.0156         estimate D2E/DX2                !
 ! A46   A(5,12,25)            160.5814         estimate D2E/DX2                !
 ! A47   A(5,12,26)            144.3629         estimate D2E/DX2                !
 ! A48   A(7,12,23)            100.534          estimate D2E/DX2                !
 ! A49   A(7,12,25)             68.3637         estimate D2E/DX2                !
 ! A50   A(7,12,26)             74.2097         estimate D2E/DX2                !
 ! A51   A(9,12,21)            151.6036         estimate D2E/DX2                !
 ! A52   A(9,12,23)             87.8134         estimate D2E/DX2                !
 ! A53   A(9,12,25)             73.9503         estimate D2E/DX2                !
 ! A54   A(9,12,26)             87.3475         estimate D2E/DX2                !
 ! A55   A(21,12,23)            66.5579         estimate D2E/DX2                !
 ! A56   A(21,12,25)            98.2682         estimate D2E/DX2                !
 ! A57   A(21,12,26)            95.3385         estimate D2E/DX2                !
 ! A58   A(23,12,25)            53.6046         estimate D2E/DX2                !
 ! A59   A(23,12,26)            71.4488         estimate D2E/DX2                !
 ! A60   A(20,19,21)           122.8172         estimate D2E/DX2                !
 ! A61   A(20,19,22)           112.8488         estimate D2E/DX2                !
 ! A62   A(21,19,22)           124.3136         estimate D2E/DX2                !
 ! A63   A(19,20,29)           109.827          estimate D2E/DX2                !
 ! A64   A(12,21,19)           119.5886         estimate D2E/DX2                !
 ! A65   A(19,22,23)           111.1373         estimate D2E/DX2                !
 ! A66   A(19,22,30)           106.1495         estimate D2E/DX2                !
 ! A67   A(19,22,31)           109.4211         estimate D2E/DX2                !
 ! A68   A(23,22,30)           109.8466         estimate D2E/DX2                !
 ! A69   A(23,22,31)           113.6166         estimate D2E/DX2                !
 ! A70   A(30,22,31)           106.2953         estimate D2E/DX2                !
 ! A71   A(12,23,22)           108.394          estimate D2E/DX2                !
 ! A72   A(12,23,24)           104.1423         estimate D2E/DX2                !
 ! A73   A(12,23,32)           114.5247         estimate D2E/DX2                !
 ! A74   A(22,23,24)           113.6834         estimate D2E/DX2                !
 ! A75   A(22,23,32)           108.4058         estimate D2E/DX2                !
 ! A76   A(24,23,32)           107.8013         estimate D2E/DX2                !
 ! A77   A(23,24,25)           111.9537         estimate D2E/DX2                !
 ! A78   A(23,24,33)           112.8774         estimate D2E/DX2                !
 ! A79   A(23,24,34)           107.2712         estimate D2E/DX2                !
 ! A80   A(25,24,33)           109.8342         estimate D2E/DX2                !
 ! A81   A(25,24,34)           106.4205         estimate D2E/DX2                !
 ! A82   A(33,24,34)           108.1726         estimate D2E/DX2                !
 ! A83   A(12,25,24)            73.1943         estimate D2E/DX2                !
 ! A84   A(12,25,27)           119.5755         estimate D2E/DX2                !
 ! A85   A(12,25,28)           128.966          estimate D2E/DX2                !
 ! A86   A(24,25,26)           106.4719         estimate D2E/DX2                !
 ! A87   A(24,25,27)           108.8981         estimate D2E/DX2                !
 ! A88   A(24,25,28)           103.8859         estimate D2E/DX2                !
 ! A89   A(26,25,27)           118.8503         estimate D2E/DX2                !
 ! A90   A(26,25,28)           108.044          estimate D2E/DX2                !
 ! A91   A(27,25,28)           109.6396         estimate D2E/DX2                !
 ! A92   A(25,28,36)           112.4142         estimate D2E/DX2                !
 ! A93   L(7,12,21,3,-1)       189.2497         estimate D2E/DX2                !
 ! A94   L(7,12,21,3,-2)       165.4139         estimate D2E/DX2                !
 ! D1    D(4,1,2,3)           -165.8475         estimate D2E/DX2                !
 ! D2    D(4,1,2,15)           -39.6087         estimate D2E/DX2                !
 ! D3    D(4,1,2,16)            74.5881         estimate D2E/DX2                !
 ! D4    D(5,1,2,3)             15.6183         estimate D2E/DX2                !
 ! D5    D(5,1,2,15)           141.8571         estimate D2E/DX2                !
 ! D6    D(5,1,2,16)          -103.9461         estimate D2E/DX2                !
 ! D7    D(2,1,4,13)          -177.0809         estimate D2E/DX2                !
 ! D8    D(5,1,4,13)             1.4752         estimate D2E/DX2                !
 ! D9    D(2,1,5,12)             6.9492         estimate D2E/DX2                !
 ! D10   D(4,1,5,12)          -171.438          estimate D2E/DX2                !
 ! D11   D(1,2,3,6)           -145.0138         estimate D2E/DX2                !
 ! D12   D(1,2,3,12)           -26.3392         estimate D2E/DX2                !
 ! D13   D(1,2,3,14)            94.2613         estimate D2E/DX2                !
 ! D14   D(15,2,3,6)            91.2222         estimate D2E/DX2                !
 ! D15   D(15,2,3,12)         -150.1032         estimate D2E/DX2                !
 ! D16   D(15,2,3,14)          -29.5027         estimate D2E/DX2                !
 ! D17   D(16,2,3,6)           -27.7452         estimate D2E/DX2                !
 ! D18   D(16,2,3,12)           90.9293         estimate D2E/DX2                !
 ! D19   D(16,2,3,14)         -148.4702         estimate D2E/DX2                !
 ! D20   D(2,3,6,7)             76.5415         estimate D2E/DX2                !
 ! D21   D(2,3,6,17)          -168.1756         estimate D2E/DX2                !
 ! D22   D(2,3,6,18)           -47.8525         estimate D2E/DX2                !
 ! D23   D(12,3,6,7)           -44.9061         estimate D2E/DX2                !
 ! D24   D(12,3,6,17)           70.3768         estimate D2E/DX2                !
 ! D25   D(12,3,6,18)         -169.3002         estimate D2E/DX2                !
 ! D26   D(14,3,6,7)          -161.8997         estimate D2E/DX2                !
 ! D27   D(14,3,6,17)          -46.6168         estimate D2E/DX2                !
 ! D28   D(14,3,6,18)           73.7062         estimate D2E/DX2                !
 ! D29   D(2,3,12,5)            21.8662         estimate D2E/DX2                !
 ! D30   D(2,3,12,7)           -97.0944         estimate D2E/DX2                !
 ! D31   D(2,3,12,9)           -83.4787         estimate D2E/DX2                !
 ! D32   D(2,3,12,21)           97.4917         estimate D2E/DX2                !
 ! D33   D(2,3,12,23)         -137.4193         estimate D2E/DX2                !
 ! D34   D(2,3,12,25)         -154.6604         estimate D2E/DX2                !
 ! D35   D(2,3,12,26)         -173.4074         estimate D2E/DX2                !
 ! D36   D(6,3,12,5)           145.8831         estimate D2E/DX2                !
 ! D37   D(6,3,12,7)            26.9225         estimate D2E/DX2                !
 ! D38   D(6,3,12,9)            40.5382         estimate D2E/DX2                !
 ! D39   D(6,3,12,21)         -138.4914         estimate D2E/DX2                !
 ! D40   D(6,3,12,23)          -13.4024         estimate D2E/DX2                !
 ! D41   D(6,3,12,25)          -30.6435         estimate D2E/DX2                !
 ! D42   D(6,3,12,26)          -49.3905         estimate D2E/DX2                !
 ! D43   D(14,3,12,5)          -98.4635         estimate D2E/DX2                !
 ! D44   D(14,3,12,7)          142.5759         estimate D2E/DX2                !
 ! D45   D(14,3,12,9)          156.1916         estimate D2E/DX2                !
 ! D46   D(14,3,12,21)         -22.838          estimate D2E/DX2                !
 ! D47   D(14,3,12,23)         102.251          estimate D2E/DX2                !
 ! D48   D(14,3,12,25)          85.0099         estimate D2E/DX2                !
 ! D49   D(14,3,12,26)          66.2629         estimate D2E/DX2                !
 ! D50   D(1,5,12,3)           -15.7489         estimate D2E/DX2                !
 ! D51   D(1,5,12,7)            28.3556         estimate D2E/DX2                !
 ! D52   D(1,5,12,9)            51.0012         estimate D2E/DX2                !
 ! D53   D(1,5,12,21)         -153.7832         estimate D2E/DX2                !
 ! D54   D(1,5,12,23)          145.0733         estimate D2E/DX2                !
 ! D55   D(1,5,12,25)           -5.2911         estimate D2E/DX2                !
 ! D56   D(1,5,12,26)          -42.3353         estimate D2E/DX2                !
 ! D57   D(3,6,7,8)            153.6635         estimate D2E/DX2                !
 ! D58   D(3,6,7,9)             25.1316         estimate D2E/DX2                !
 ! D59   D(3,6,7,10)           -95.2849         estimate D2E/DX2                !
 ! D60   D(3,6,7,12)            33.9607         estimate D2E/DX2                !
 ! D61   D(17,6,7,8)            37.3713         estimate D2E/DX2                !
 ! D62   D(17,6,7,9)           -91.1606         estimate D2E/DX2                !
 ! D63   D(17,6,7,10)          148.4229         estimate D2E/DX2                !
 ! D64   D(17,6,7,12)          -82.3315         estimate D2E/DX2                !
 ! D65   D(18,6,7,8)           -79.7114         estimate D2E/DX2                !
 ! D66   D(18,6,7,9)           151.7567         estimate D2E/DX2                !
 ! D67   D(18,6,7,10)           31.3402         estimate D2E/DX2                !
 ! D68   D(18,6,7,12)          160.5859         estimate D2E/DX2                !
 ! D69   D(6,7,8,11)           -70.507          estimate D2E/DX2                !
 ! D70   D(9,7,8,11)            53.8846         estimate D2E/DX2                !
 ! D71   D(10,7,8,11)          179.8516         estimate D2E/DX2                !
 ! D72   D(12,7,8,11)           12.665          estimate D2E/DX2                !
 ! D73   D(6,7,10,35)         -154.137          estimate D2E/DX2                !
 ! D74   D(8,7,10,35)          -39.7864         estimate D2E/DX2                !
 ! D75   D(9,7,10,35)           88.2089         estimate D2E/DX2                !
 ! D76   D(12,7,10,35)         125.9336         estimate D2E/DX2                !
 ! D77   D(6,7,12,3)           -21.3994         estimate D2E/DX2                !
 ! D78   D(6,7,12,5)           -74.7136         estimate D2E/DX2                !
 ! D79   D(6,7,12,23)          137.5509         estimate D2E/DX2                !
 ! D80   D(6,7,12,25)           93.8563         estimate D2E/DX2                !
 ! D81   D(6,7,12,26)           70.4359         estimate D2E/DX2                !
 ! D82   D(8,7,12,3)          -124.5312         estimate D2E/DX2                !
 ! D83   D(8,7,12,5)          -177.8454         estimate D2E/DX2                !
 ! D84   D(8,7,12,23)           34.4191         estimate D2E/DX2                !
 ! D85   D(8,7,12,25)           -9.2756         estimate D2E/DX2                !
 ! D86   D(8,7,12,26)          -32.696          estimate D2E/DX2                !
 ! D87   D(10,7,12,3)           71.9255         estimate D2E/DX2                !
 ! D88   D(10,7,12,5)           18.6113         estimate D2E/DX2                !
 ! D89   D(10,7,12,23)        -129.1242         estimate D2E/DX2                !
 ! D90   D(10,7,12,25)        -172.8188         estimate D2E/DX2                !
 ! D91   D(10,7,12,26)         163.7608         estimate D2E/DX2                !
 ! D92   D(3,12,21,19)         131.188          estimate D2E/DX2                !
 ! D93   D(5,12,21,19)        -165.5711         estimate D2E/DX2                !
 ! D94   D(9,12,21,19)         -46.8772         estimate D2E/DX2                !
 ! D95   D(23,12,21,19)        -19.6893         estimate D2E/DX2                !
 ! D96   D(25,12,21,19)         24.5413         estimate D2E/DX2                !
 ! D97   D(26,12,21,19)         47.4306         estimate D2E/DX2                !
 ! D98   D(3,12,23,22)        -116.1282         estimate D2E/DX2                !
 ! D99   D(3,12,23,24)           5.2261         estimate D2E/DX2                !
 ! D100  D(3,12,23,32)         122.7097         estimate D2E/DX2                !
 ! D101  D(5,12,23,22)          97.1732         estimate D2E/DX2                !
 ! D102  D(5,12,23,24)        -141.4725         estimate D2E/DX2                !
 ! D103  D(5,12,23,32)         -23.9889         estimate D2E/DX2                !
 ! D104  D(7,12,23,22)        -147.5275         estimate D2E/DX2                !
 ! D105  D(7,12,23,24)         -26.1732         estimate D2E/DX2                !
 ! D106  D(7,12,23,32)          91.3104         estimate D2E/DX2                !
 ! D107  D(9,12,23,22)        -166.2163         estimate D2E/DX2                !
 ! D108  D(9,12,23,24)         -44.862          estimate D2E/DX2                !
 ! D109  D(9,12,23,32)          72.6216         estimate D2E/DX2                !
 ! D110  D(21,12,23,22)         26.343          estimate D2E/DX2                !
 ! D111  D(21,12,23,24)        147.6973         estimate D2E/DX2                !
 ! D112  D(21,12,23,32)        -94.8191         estimate D2E/DX2                !
 ! D113  D(25,12,23,22)        -94.6117         estimate D2E/DX2                !
 ! D114  D(25,12,23,24)         26.7426         estimate D2E/DX2                !
 ! D115  D(25,12,23,32)        144.2262         estimate D2E/DX2                !
 ! D116  D(26,12,23,22)        -78.2816         estimate D2E/DX2                !
 ! D117  D(26,12,23,24)         43.0728         estimate D2E/DX2                !
 ! D118  D(26,12,23,32)        160.5564         estimate D2E/DX2                !
 ! D119  D(3,12,25,24)         147.0244         estimate D2E/DX2                !
 ! D120  D(3,12,25,27)          44.4552         estimate D2E/DX2                !
 ! D121  D(3,12,25,28)        -118.4933         estimate D2E/DX2                !
 ! D122  D(5,12,25,24)         137.4576         estimate D2E/DX2                !
 ! D123  D(5,12,25,27)          34.8884         estimate D2E/DX2                !
 ! D124  D(5,12,25,28)        -128.0601         estimate D2E/DX2                !
 ! D125  D(7,12,25,24)         101.0772         estimate D2E/DX2                !
 ! D126  D(7,12,25,27)          -1.4921         estimate D2E/DX2                !
 ! D127  D(7,12,25,28)        -164.4406         estimate D2E/DX2                !
 ! D128  D(9,12,25,24)          77.9819         estimate D2E/DX2                !
 ! D129  D(9,12,25,27)         -24.5873         estimate D2E/DX2                !
 ! D130  D(9,12,25,28)         172.4642         estimate D2E/DX2                !
 ! D131  D(21,12,25,24)        -74.0447         estimate D2E/DX2                !
 ! D132  D(21,12,25,27)       -176.6139         estimate D2E/DX2                !
 ! D133  D(21,12,25,28)         20.4376         estimate D2E/DX2                !
 ! D134  D(23,12,25,24)        -21.3842         estimate D2E/DX2                !
 ! D135  D(23,12,25,27)       -123.9534         estimate D2E/DX2                !
 ! D136  D(23,12,25,28)         73.0981         estimate D2E/DX2                !
 ! D137  D(21,19,20,29)          1.916          estimate D2E/DX2                !
 ! D138  D(22,19,20,29)       -176.5081         estimate D2E/DX2                !
 ! D139  D(20,19,21,12)       -168.6382         estimate D2E/DX2                !
 ! D140  D(22,19,21,12)          9.6036         estimate D2E/DX2                !
 ! D141  D(20,19,22,23)       -163.9012         estimate D2E/DX2                !
 ! D142  D(20,19,22,30)         76.6992         estimate D2E/DX2                !
 ! D143  D(20,19,22,31)        -37.6209         estimate D2E/DX2                !
 ! D144  D(21,19,22,23)         17.7023         estimate D2E/DX2                !
 ! D145  D(21,19,22,30)       -101.6974         estimate D2E/DX2                !
 ! D146  D(21,19,22,31)        143.9826         estimate D2E/DX2                !
 ! D147  D(19,22,23,12)        -31.3069         estimate D2E/DX2                !
 ! D148  D(19,22,23,24)       -146.5858         estimate D2E/DX2                !
 ! D149  D(19,22,23,32)         93.5603         estimate D2E/DX2                !
 ! D150  D(30,22,23,12)         85.86           estimate D2E/DX2                !
 ! D151  D(30,22,23,24)        -29.419          estimate D2E/DX2                !
 ! D152  D(30,22,23,32)       -149.2729         estimate D2E/DX2                !
 ! D153  D(31,22,23,12)       -155.233          estimate D2E/DX2                !
 ! D154  D(31,22,23,24)         89.4881         estimate D2E/DX2                !
 ! D155  D(31,22,23,32)        -30.3658         estimate D2E/DX2                !
 ! D156  D(12,23,24,25)        -44.8782         estimate D2E/DX2                !
 ! D157  D(12,23,24,33)       -169.4295         estimate D2E/DX2                !
 ! D158  D(12,23,24,34)         71.5133         estimate D2E/DX2                !
 ! D159  D(22,23,24,25)         72.8875         estimate D2E/DX2                !
 ! D160  D(22,23,24,33)        -51.6637         estimate D2E/DX2                !
 ! D161  D(22,23,24,34)       -170.7209         estimate D2E/DX2                !
 ! D162  D(32,23,24,25)       -166.9166         estimate D2E/DX2                !
 ! D163  D(32,23,24,33)         68.5322         estimate D2E/DX2                !
 ! D164  D(32,23,24,34)        -50.5251         estimate D2E/DX2                !
 ! D165  D(23,24,25,12)         34.2465         estimate D2E/DX2                !
 ! D166  D(23,24,25,26)         21.174          estimate D2E/DX2                !
 ! D167  D(23,24,25,27)        150.4507         estimate D2E/DX2                !
 ! D168  D(23,24,25,28)        -92.7687         estimate D2E/DX2                !
 ! D169  D(33,24,25,12)        160.473          estimate D2E/DX2                !
 ! D170  D(33,24,25,26)        147.4006         estimate D2E/DX2                !
 ! D171  D(33,24,25,27)        -83.3228         estimate D2E/DX2                !
 ! D172  D(33,24,25,28)         33.4579         estimate D2E/DX2                !
 ! D173  D(34,24,25,12)        -82.6583         estimate D2E/DX2                !
 ! D174  D(34,24,25,26)        -95.7308         estimate D2E/DX2                !
 ! D175  D(34,24,25,27)         33.5458         estimate D2E/DX2                !
 ! D176  D(34,24,25,28)        150.3265         estimate D2E/DX2                !
 ! D177  D(12,25,28,36)        165.0101         estimate D2E/DX2                !
 ! D178  D(24,25,28,36)       -115.5407         estimate D2E/DX2                !
 ! D179  D(26,25,28,36)        131.6464         estimate D2E/DX2                !
 ! D180  D(27,25,28,36)          0.7206         estimate D2E/DX2                !
 --------------------------------------------------------------------------------
 Trust Radius=3.00D-01 FncErr=1.00D-07 GrdErr=1.00D-06 EigMax=2.50D+02 EigMin=1.00D-04
 Number of steps in this run=    216 maximum allowed number of steps=    216.
 GradGradGradGradGradGradGradGradGradGradGradGradGradGradGradGradGradGrad

                          Input orientation:                          
 ---------------------------------------------------------------------
 Center     Atomic      Atomic             Coordinates (Angstroms)
 Number     Number       Type             X           Y           Z
 ---------------------------------------------------------------------
      1          6           0       -2.652472   -2.787169   -0.128912
      2          6           0       -3.111518   -1.565640   -0.902436
      3          7           0       -1.963343   -0.784753   -1.381729
      4          8           0       -3.623678   -3.665596    0.060917
      5          8           0       -1.512875   -2.944489    0.305229
      6          6           0       -2.181100    0.677985   -1.391990
      7         15           0       -2.063211    1.375876    0.305811
      8          8           0       -1.628476    2.877934    0.221023
      9          8           0       -1.197904    0.468802    1.159370
     10          8           0       -3.602581    1.416206    0.782326
     11          1           0       -0.631524    3.021105   -0.079416
     12         20           0        0.152051   -1.176155    0.198677
     13          1           0       -3.296478   -4.412572    0.601609
     14          1           0       -1.737481   -1.070802   -2.333673
     15          1           0       -3.797032   -1.877257   -1.699841
     16          1           0       -3.707923   -0.966181   -0.203150
     17          1           0       -1.359789    1.127708   -1.956672
     18          1           0       -3.130617    0.980049   -1.851929
     19          6           0        3.239931   -2.056654    0.403992
     20          8           0        4.380386   -2.696590    0.200378
     21          8           0        2.140985   -2.566175    0.185873
     22          6           0        3.441210   -0.636327    0.891229
     23          7           0        2.200337   -0.090843    1.463423
     24          6           0        2.032093    1.367709    1.241754
     25         15           0        1.609005    1.757160   -0.523163
     26          8           0        1.035902    0.473006   -1.125339
     27          8           0        0.768717    3.023175   -0.560127
     28          8           0        3.054654    2.039115   -1.218623
     29          1           0        4.201033   -3.586306   -0.164755
     30          1           0        3.734623   -0.050422    0.011069
     31          1           0        4.293828   -0.604553    1.580241
     32          1           0        2.210980   -0.254044    2.470130
     33          1           0        2.909231    1.950491    1.551838
     34          1           0        1.178132    1.690960    1.842806
     35          1           0       -3.806297    2.086432    1.458653
     36          1           0        3.145052    2.957112   -1.527167
 ---------------------------------------------------------------------
                    Distance matrix (angstroms):
                    1          2          3          4          5
     1  C    0.000000
     2  C    1.516969   0.000000
     3  N    2.460512   1.468949   0.000000
     4  O    1.323220   2.366468   3.624527   0.000000
     5  O    1.229598   2.432147   2.777266   2.243919   0.000000
     6  C    3.718178   2.477740   1.478893   4.801944   4.055785
     7  P    4.226955   3.348331   2.743370   5.283130   4.355275
     8  O    5.767531   4.817356   4.012011   6.842825   5.824180
     9  O    3.791673   3.471587   2.935044   4.917746   3.532608
    10  O    4.404704   3.459909   3.494919   5.132795   4.859028
    11  H    6.150018   5.278822   4.237253   7.326980   6.042602
    12  Ca   3.250851   3.466270   2.669414   4.524646   2.431119
    13  H    1.894819   3.225118   4.344186   0.978459   2.329023
    14  H    2.940084   2.044818   1.019331   4.003093   3.244218
    15  H    2.146106   1.096763   2.158049   2.515646   3.221282
    16  H    2.106059   1.097292   2.113178   2.713608   2.998398
    17  H    4.509767   3.381433   2.086227   5.672003   4.660732
    18  H    4.170052   2.717063   2.167520   5.048178   4.761556
    19  C    5.961381   6.502981   5.646291   7.058012   4.836029
    20  O    7.041146   7.656623   6.811834   8.063713   5.899405
    21  O    4.808863   5.456581   4.740923   5.869897   3.675332
    22  C    6.542153   6.857047   5.864943   7.731658   5.496723
    23  N    5.775418   5.999010   5.090445   6.976033   4.824174
    24  C    6.409905   6.297525   5.242067   7.662655   5.660294
    25  P    6.242319   5.785170   4.467676   7.558334   5.704198
    26  O    5.022520   4.626754   3.262387   6.344046   4.496894
    27  O    6.756521   6.019188   4.758098   8.026113   6.447288
    28  O    7.553263   7.149539   5.760307   8.875870   6.929701
    29  H    6.900032   7.622379   6.879627   7.828367   5.769017
    30  H    6.950134   7.071069   5.911510   8.198571   5.999866
    31  H    7.479044   7.869341   6.925166   8.623528   6.388956
    32  H    6.068353   6.436107   5.704686   7.175391   5.078621
    33  H    7.496859   7.391621   6.311051   8.743122   6.713412
    34  H    6.214084   6.045072   5.137670   7.411154   5.576114
    35  H    5.253918   4.403985   4.439363   5.922232   5.648038
    36  H    8.280288   7.745337   6.333910   9.601978   7.738401
                    6          7          8          9         10
     6  C    0.000000
     7  P    1.839424   0.000000
     8  O    2.783340   1.566002   0.000000
     9  O    2.742239   1.516609   2.621032   0.000000
    10  O    2.700598   1.611941   2.519683   2.611936   0.000000
    11  H    3.100685   2.214702   1.051036   2.893031   3.485037
    12  Ca   3.378113   3.381083   4.427914   2.334779   4.599809
    13  H    5.579630   5.925755   7.488562   5.342557   5.839607
    14  H    2.035146   3.613753   4.704346   3.855240   4.401506
    15  H    3.038959   4.196623   5.568141   4.520459   4.128663
    16  H    2.539254   2.906776   4.391041   3.196222   2.580315
    17  H    1.093466   2.382272   2.806749   3.189057   3.551825
    18  H    1.097437   2.439647   3.186773   3.614509   2.711509
    19  C    6.331776   6.317849   6.934337   5.161677   7.682700
    20  O    7.548277   7.623387   8.196473   6.485113   8.998973
    21  O    5.629800   5.764496   6.621813   4.615947   7.014533
    22  C    6.208935   5.889849   6.204911   4.776462   7.337557
    23  N    5.285969   4.655015   5.001701   3.457411   6.033983
    24  C    5.016305   4.200901   4.089308   3.353759   5.653581
    25  P    4.035390   3.783880   3.505886   3.517034   5.383418
    26  O    3.234536   3.530987   3.833443   3.195278   5.103366
    27  O    3.859188   3.388695   2.525436   3.653641   4.846935
    28  O    5.412564   5.381108   4.970706   5.119081   6.979298
    29  H    7.773153   8.005338   8.713117   6.880823   9.317644
    30  H    6.123310   5.977966   6.114097   5.090973   7.521994
    31  H    7.239043   6.779248   7.003491   5.611447   8.189836
    32  H    5.922416   5.060595   5.441433   3.723048   6.279802
    33  H    6.016384   5.158289   4.818922   4.383833   6.578854
    34  H    4.772260   3.601102   3.451976   2.757953   4.904623
    35  H    3.570876   2.207325   2.626995   3.083831   0.973715
    36  H    5.794876   5.743354   5.084193   5.680707   7.296486
                   11         12         13         14         15
    11  H    0.000000
    12  Ca   4.278822   0.000000
    13  H    7.926243   4.746483   0.000000
    14  H    4.800887   3.161365   4.713149   0.000000
    15  H    6.053112   4.437473   3.460498   2.300839   0.000000
    16  H    5.037657   3.886509   3.562939   2.903913   1.754447
    17  H    2.763948   3.498424   6.402364   2.262350   3.877619
    18  H    3.681464   4.430588   5.926864   2.525648   2.937931
    19  C    6.403552   3.217520   6.950830   5.765531   7.346914
    20  O    7.608519   4.493389   7.876536   6.818570   8.435182
    21  O    6.242986   2.426557   5.757432   4.860736   6.268219
    22  C    5.559327   3.404351   7.729187   6.116175   7.787534
    23  N    4.481518   2.640636   7.045213   5.557398   7.011843
    24  C    3.402067   3.330737   7.887655   5.739312   7.291192
    25  P    2.610448   3.353820   7.962065   4.740706   6.619577
    26  O    3.219794   2.292148   6.754312   3.396332   5.404724
    27  O    1.480460   4.311663   8.553699   5.117338   6.794059
    28  O    3.981206   4.557610   9.234413   5.820609   7.906652
    29  H    8.186499   4.726010   7.581734   6.804257   8.321441
    30  H    5.339073   3.759959   8.295388   6.040109   7.936647
    31  H    6.337108   4.403381   8.548185   7.205054   8.822739
    32  H    5.030567   3.201402   7.149602   6.271679   7.491307
    33  H    4.042790   4.382808   8.938811   6.768852   8.378487
    34  H    2.956193   3.460686   7.669146   5.794058   7.073526
    35  H    3.649446   5.282095   6.575066   5.350688   5.068234
    36  H    4.045071   5.387067  10.016848   6.380727   8.461293
                   16         17         18         19         20
    16  H    0.000000
    17  H    3.601797   0.000000
    18  H    2.615256   1.780058   0.000000
    19  C    7.059067   6.072093   7.409091   0.000000
    20  O    8.281177   7.226875   8.610738   1.323485   0.000000
    21  O    6.076269   5.521837   6.672191   1.230800   2.243242
    22  C    7.239929   5.854224   7.302499   1.515006   2.367279
    23  N    6.200904   5.084920   6.368472   2.463242   3.624612
    24  C    6.362591   4.668232   6.031146   3.726524   4.808063
    25  P    5.982367   3.356321   4.983326   4.250261   5.295277
    26  O    5.042377   2.618986   4.259684   3.687245   4.794730
    27  O    6.006887   3.173904   4.587801   5.730715   6.807219
    28  O    7.469634   4.567569   6.307161   4.409369   5.118401
    29  H    8.331753   7.507039   8.800639   1.893944   0.978307
    30  H    7.501733   5.586862   7.187778   2.103349   2.730395
    31  H    8.206051   6.890128   8.331454   2.145427   2.507615
    32  H    6.533527   5.852880   6.981105   2.928664   3.977955
    33  H    7.441350   5.586694   7.000511   4.181403   5.058271
    34  H    5.926202   4.603730   5.720295   4.512850   5.674733
    35  H    3.477026   4.309176   3.555358   8.241772   9.564640
    36  H    8.006779   4.881064   6.587737   5.373660   6.039438
                   21         22         23         24         25
    21  O    0.000000
    22  C    2.431548   0.000000
    23  N    2.786202   1.471300   0.000000
    24  C    4.074577   2.474800   1.484863   0.000000
    25  P    4.413271   3.329603   2.776926   1.856235   0.000000
    26  O    3.489571   3.329064   2.894049   2.719562   1.529744
    27  O    5.803488   4.758214   3.980126   2.753809   1.519949
    28  O    4.900622   3.429123   3.529866   2.747703   1.628823
    29  H    2.325383   3.224099   4.344193   5.587918   5.949765
    30  H    2.983161   1.097295   2.113055   2.534618   2.840952
    31  H    3.229079   1.096679   2.158761   3.019906   4.148527
    32  H    3.250950   2.037777   1.019905   2.042300   3.656107
    33  H    4.780830   2.722322   2.162729   1.097798   2.456338
    34  H    4.668587   3.382792   2.088937   1.093162   2.405794
    35  H    7.657472   7.762843   6.389069   5.886460   5.775942
    36  H    5.869357   4.341560   4.373345   3.381095   2.192566
                   26         27         28         29         30
    26  O    0.000000
    27  O    2.625684   0.000000
    28  O    2.556709   2.574393   0.000000
    29  H    5.236295   7.458040   5.836967   0.000000
    30  H    2.974641   4.309276   2.518067   3.570845   0.000000
    31  H    4.369825   5.492540   4.044524   3.456078   1.755583
    32  H    3.851857   4.690708   4.424620   4.691152   2.899988
    33  H    3.586029   3.192624   2.775691   5.938988   2.656858
    34  H    3.211468   2.777860   3.607616   6.404511   3.594901
    35  H    5.720756   5.087604   7.364964   9.946494   7.970390
    36  H    3.283407   2.566418   0.972671   6.766652   3.429143
                   31         32         33         34         35
    31  H    0.000000
    32  H    2.291946   0.000000
    33  H    2.906229   2.488130   0.000000
    34  H    3.878902   2.289836   1.774464   0.000000
    35  H    8.536288   6.535176   6.717550   5.014829   0.000000
    36  H    4.864270   5.211755   3.247948   4.102271   7.615409
                   36
    36  H    0.000000
 Stoichiometry    C6H15CaN2O10P2(1+)
 Framework group  C1[X(C6H15CaN2O10P2)]
 Deg. of freedom   102
 Full point group                 C1      NOp   1
 Largest Abelian subgroup         C1      NOp   1
 Largest concise Abelian subgroup C1      NOp   1
                         Standard orientation:                         
 ---------------------------------------------------------------------
 Center     Atomic      Atomic             Coordinates (Angstroms)
 Number     Number       Type             X           Y           Z
 ---------------------------------------------------------------------
      1          6           0       -2.904383    2.391915    0.146436
      2          6           0       -3.280335    1.088825    0.826003
      3          7           0       -2.086501    0.390236    1.320517
      4          8           0       -3.945094    3.186431   -0.044809
      5          8           0       -1.765977    2.679929   -0.218241
      6          6           0       -2.163827   -1.084342    1.238254
      7         15           0       -1.900618   -1.664950   -0.487172
      8          8           0       -1.328879   -3.122655   -0.463252
      9          8           0       -1.086940   -0.631951   -1.242780
     10          8           0       -3.405143   -1.818955   -1.044882
     11          1           0       -0.337946   -3.190679   -0.119594
     12         20           0        0.053391    1.070208   -0.123184
     13          1           0       -3.665807    3.991659   -0.525422
     14          1           0       -1.933722    0.638211    2.297350
     15          1           0       -4.028987    1.287093    1.602598
     16          1           0       -3.783437    0.479844    0.064372
     17          1           0       -1.330617   -1.489201    1.819217
     18          1           0       -3.100614   -1.500160    1.630546
     19          6           0        3.049288    2.243668   -0.117905
     20          8           0        4.112657    2.973074    0.180133
     21          8           0        1.897723    2.635172    0.070485
     22          6           0        3.407823    0.879969   -0.672000
     23          7           0        2.252812    0.257301   -1.337551
     24          6           0        2.214438   -1.221244   -1.206204
     25         15           0        1.748453   -1.753632    0.509905
     26          8           0        1.027833   -0.566623    1.151645
     27          8           0        1.032091   -3.091953    0.432686
     28          8           0        3.180331   -1.941787    1.263156
     29          1           0        3.832297    3.818781    0.584193
     30          1           0        3.714387    0.271896    0.188420
     31          1           0        4.290845    0.968792   -1.316274
     32          1           0        2.294859    0.481026   -2.331726
     33          1           0        3.156747   -1.700575   -1.501933
     34          1           0        1.424275   -1.585468   -1.868009
     35          1           0       -3.512097   -2.463279   -1.767050
     36          1           0        3.343456   -2.864350    1.524605
 ---------------------------------------------------------------------
 Rotational constants (GHZ):           0.2987348           0.2120261           0.1409530
 Standard basis: def2TZVP (5D, 7F)
 There are   861 symmetry adapted cartesian basis functions of A   symmetry.
 There are   758 symmetry adapted basis functions of A   symmetry.
   758 basis functions,  1253 primitive gaussians,   861 cartesian basis functions
    97 alpha electrons       97 beta electrons
       nuclear repulsion energy      2697.2785046362 Hartrees.
 NAtoms=   36 NActive=   36 NUniq=   36 SFac= 1.00D+00 NAtFMM=   60 NAOKFM=F Big=F
 Integral buffers will be    131072 words long.
 Raffenetti 2 integral format.
 Two-electron integral symmetry is turned on.
 Nuclear repulsion after empirical dispersion term =     2697.2710264544 Hartrees.
 One-electron integrals computed using PRISM.
   1 Symmetry operations used in ECPInt.
 ECPInt:  NShTT=   44551 NPrTT=  145020 LenC2=   37704 LenP2D=   83756.
 LDataN:  DoStor=T MaxTD1= 6 Len=  172
 NBasis=   758 RedAO= T EigKep=  2.15D-04  NBF=   758
 NBsUse=   758 1.00D-06 EigRej= -1.00D+00 NBFU=   758
 ExpMin= 2.68D-02 ExpMax= 1.73D+05 ExpMxC= 5.89D+03 IAcc=3 IRadAn=         5 AccDes= 0.00D+00
 Harris functional with IExCor= 1009 and IRadAn=       5 diagonalized for initial guess.
 HarFok:  IExCor= 1009 AccDes= 0.00D+00 IRadAn=         5 IDoV= 1 UseB2=F ITyADJ=14
 ICtDFT=  3500011 ScaDFX=  1.000000  1.000000  1.000000  1.000000
 FoFCou: FMM=F IPFlag=           0 FMFlag=      100000 FMFlg1=           0
         NFxFlg=           0 DoJE=T BraDBF=F KetDBF=T FulRan=T
         wScrn=  0.000000 ICntrl=       500 IOpCl=  0 I1Cent=   200000004 NGrid=           0
         NMat0=    1 NMatS0=      1 NMatT0=    0 NMatD0=    1 NMtDS0=    0 NMtDT0=    0
 Petite list used in FoFCou.
 Initial guess <Sx>= 0.0000 <Sy>= 0.0000 <Sz>= 0.0000 <S**2>= 0.0000 S= 0.0000
 Requested convergence on RMS density matrix=1.00D-08 within  32 cycles.
 Requested convergence on MAX density matrix=1.00D-06.
 Requested convergence on             energy=1.00D-06.
 No special actions if energy rises.
 SCF Done:  E(UM06) =  -2459.86919103     A.U. after   13 cycles
            NFock= 13  Conv=0.38D-08     -V/T= 2.0032
 <Sx>= 0.0000 <Sy>= 0.0000 <Sz>= 0.0000 <S**2>=-0.0000 S=-0.0000
 <L.S>= 0.000000000000E+00
 Annihilation of the first spin contaminant:
 S**2 before annihilation    -0.0000,   after    -0.0000
 QCSCF skips out because SCF is already converged.

 **********************************************************************

            Population analysis using the SCF Density.

 **********************************************************************

 Orbital symmetries:
 Alpha Orbitals:
       Occupied  (A) (A) (A) (A) (A) (A) (A) (A) (A) (A) (A) (A)
                 (A) (A) (A) (A) (A) (A) (A) (A) (A) (A) (A) (A)
                 (A) (A) (A) (A) (A) (A) (A) (A) (A) (A) (A) (A)
                 (A) (A) (A) (A) (A) (A) (A) (A) (A) (A) (A) (A)
                 (A) (A) (A) (A) (A) (A) (A) (A) (A) (A) (A) (A)
                 (A) (A) (A) (A) (A) (A) (A) (A) (A) (A) (A) (A)
                 (A) (A) (A) (A) (A) (A) (A) (A) (A) (A) (A) (A)
                 (A) (A) (A) (A) (A) (A) (A) (A) (A) (A) (A) (A)
                 (A)
       Virtual   (A) (A) (A) (A) (A) (A) (A) (A) (A) (A) (A) (A)
                 (A) (A) (A) (A) (A) (A) (A) (A) (A) (A) (A) (A)
                 (A) (A) (A) (A) (A) (A) (A) (A) (A) (A) (A) (A)
                 (A) (A) (A) (A) (A) (A) (A) (A) (A) (A) (A) (A)
                 (A) (A) (A) (A) (A) (A) (A) (A) (A) (A) (A) (A)
                 (A) (A) (A) (A) (A) (A) (A) (A) (A) (A) (A) (A)
                 (A) (A) (A) (A) (A) (A) (A) (A) (A) (A) (A) (A)
                 (A) (A) (A) (A) (A) (A) (A) (A) (A) (A) (A) (A)
                 (A) (A) (A) (A) (A) (A) (A) (A) (A) (A) (A) (A)
                 (A) (A) (A) (A) (A) (A) (A) (A) (A) (A) (A) (A)
                 (A) (A) (A) (A) (A) (A) (A) (A) (A) (A) (A) (A)
                 (A) (A) (A) (A) (A) (A) (A) (A) (A) (A) (A) (A)
                 (A) (A) (A) (A) (A) (A) (A) (A) (A) (A) (A) (A)
                 (A) (A) (A) (A) (A) (A) (A) (A) (A) (A) (A) (A)
                 (A) (A) (A) (A) (A) (A) (A) (A) (A) (A) (A) (A)
                 (A) (A) (A) (A) (A) (A) (A) (A) (A) (A) (A) (A)
                 (A) (A) (A) (A) (A) (A) (A) (A) (A) (A) (A) (A)
                 (A) (A) (A) (A) (A) (A) (A) (A) (A) (A) (A) (A)
                 (A) (A) (A) (A) (A) (A) (A) (A) (A) (A) (A) (A)
                 (A) (A) (A) (A) (A) (A) (A) (A) (A) (A) (A) (A)
                 (A) (A) (A) (A) (A) (A) (A) (A) (A) (A) (A) (A)
                 (A) (A) (A) (A) (A) (A) (A) (A) (A) (A) (A) (A)
                 (A) (A) (A) (A) (A) (A) (A) (A) (A) (A) (A) (A)
                 (A) (A) (A) (A) (A) (A) (A) (A) (A) (A) (A) (A)
                 (A) (A) (A) (A) (A) (A) (A) (A) (A) (A) (A) (A)
                 (A) (A) (A) (A) (A) (A) (A) (A) (A) (A) (A) (A)
                 (A) (A) (A) (A) (A) (A) (A) (A) (A) (A) (A) (A)
                 (A) (A) (A) (A) (A) (A) (A) (A) (A) (A) (A) (A)
                 (A) (A) (A) (A) (A) (A) (A) (A) (A) (A) (A) (A)
                 (A) (A) (A) (A) (A) (A) (A) (A) (A) (A) (A) (A)
                 (A) (A) (A) (A) (A) (A) (A) (A) (A) (A) (A) (A)
                 (A) (A) (A) (A) (A) (A) (A) (A) (A) (A) (A) (A)
                 (A) (A) (A) (A) (A) (A) (A) (A) (A) (A) (A) (A)
                 (A) (A) (A) (A) (A) (A) (A) (A) (A) (A) (A) (A)
                 (A) (A) (A) (A) (A) (A) (A) (A) (A) (A) (A) (A)
                 (A) (A) (A) (A) (A) (A) (A) (A) (A) (A) (A) (A)
                 (A) (A) (A) (A) (A) (A) (A) (A) (A) (A) (A) (A)
                 (A) (A) (A) (A) (A) (A) (A) (A) (A) (A) (A) (A)
                 (A) (A) (A) (A) (A) (A) (A) (A) (A) (A) (A) (A)
                 (A) (A) (A) (A) (A) (A) (A) (A) (A) (A) (A) (A)
                 (A) (A) (A) (A) (A) (A) (A) (A) (A) (A) (A) (A)
                 (A) (A) (A) (A) (A) (A) (A) (A) (A) (A) (A) (A)
                 (A) (A) (A) (A) (A) (A) (A) (A) (A) (A) (A) (A)
                 (A) (A) (A) (A) (A) (A) (A) (A) (A) (A) (A) (A)
                 (A) (A) (A) (A) (A) (A) (A) (A) (A) (A) (A) (A)
                 (A) (A) (A) (A) (A) (A) (A) (A) (A) (A) (A) (A)
                 (A) (A) (A) (A) (A) (A) (A) (A) (A) (A) (A) (A)
                 (A) (A) (A) (A) (A) (A) (A) (A) (A) (A) (A) (A)
                 (A) (A) (A) (A) (A) (A) (A) (A) (A) (A) (A) (A)
                 (A) (A) (A) (A) (A) (A) (A) (A) (A) (A) (A) (A)
                 (A) (A) (A) (A) (A) (A) (A) (A) (A) (A) (A) (A)
                 (A) (A) (A) (A) (A) (A) (A) (A) (A) (A) (A) (A)
                 (A) (A) (A) (A) (A) (A) (A) (A) (A) (A) (A) (A)
                 (A) (A) (A) (A) (A) (A) (A) (A) (A) (A) (A) (A)
                 (A) (A) (A) (A) (A) (A) (A) (A) (A) (A) (A) (A)
                 (A)
 Beta  Orbitals:
       Occupied  (A) (A) (A) (A) (A) (A) (A) (A) (A) (A) (A) (A)
                 (A) (A) (A) (A) (A) (A) (A) (A) (A) (A) (A) (A)
                 (A) (A) (A) (A) (A) (A) (A) (A) (A) (A) (A) (A)
                 (A) (A) (A) (A) (A) (A) (A) (A) (A) (A) (A) (A)
                 (A) (A) (A) (A) (A) (A) (A) (A) (A) (A) (A) (A)
                 (A) (A) (A) (A) (A) (A) (A) (A) (A) (A) (A) (A)
                 (A) (A) (A) (A) (A) (A) (A) (A) (A) (A) (A) (A)
                 (A) (A) (A) (A) (A) (A) (A) (A) (A) (A) (A) (A)
                 (A)
       Virtual   (A) (A) (A) (A) (A) (A) (A) (A) (A) (A) (A) (A)
                 (A) (A) (A) (A) (A) (A) (A) (A) (A) (A) (A) (A)
                 (A) (A) (A) (A) (A) (A) (A) (A) (A) (A) (A) (A)
                 (A) (A) (A) (A) (A) (A) (A) (A) (A) (A) (A) (A)
                 (A) (A) (A) (A) (A) (A) (A) (A) (A) (A) (A) (A)
                 (A) (A) (A) (A) (A) (A) (A) (A) (A) (A) (A) (A)
                 (A) (A) (A) (A) (A) (A) (A) (A) (A) (A) (A) (A)
                 (A) (A) (A) (A) (A) (A) (A) (A) (A) (A) (A) (A)
                 (A) (A) (A) (A) (A) (A) (A) (A) (A) (A) (A) (A)
                 (A) (A) (A) (A) (A) (A) (A) (A) (A) (A) (A) (A)
                 (A) (A) (A) (A) (A) (A) (A) (A) (A) (A) (A) (A)
                 (A) (A) (A) (A) (A) (A) (A) (A) (A) (A) (A) (A)
                 (A) (A) (A) (A) (A) (A) (A) (A) (A) (A) (A) (A)
                 (A) (A) (A) (A) (A) (A) (A) (A) (A) (A) (A) (A)
                 (A) (A) (A) (A) (A) (A) (A) (A) (A) (A) (A) (A)
                 (A) (A) (A) (A) (A) (A) (A) (A) (A) (A) (A) (A)
                 (A) (A) (A) (A) (A) (A) (A) (A) (A) (A) (A) (A)
                 (A) (A) (A) (A) (A) (A) (A) (A) (A) (A) (A) (A)
                 (A) (A) (A) (A) (A) (A) (A) (A) (A) (A) (A) (A)
                 (A) (A) (A) (A) (A) (A) (A) (A) (A) (A) (A) (A)
                 (A) (A) (A) (A) (A) (A) (A) (A) (A) (A) (A) (A)
                 (A) (A) (A) (A) (A) (A) (A) (A) (A) (A) (A) (A)
                 (A) (A) (A) (A) (A) (A) (A) (A) (A) (A) (A) (A)
                 (A) (A) (A) (A) (A) (A) (A) (A) (A) (A) (A) (A)
                 (A) (A) (A) (A) (A) (A) (A) (A) (A) (A) (A) (A)
                 (A) (A) (A) (A) (A) (A) (A) (A) (A) (A) (A) (A)
                 (A) (A) (A) (A) (A) (A) (A) (A) (A) (A) (A) (A)
                 (A) (A) (A) (A) (A) (A) (A) (A) (A) (A) (A) (A)
                 (A) (A) (A) (A) (A) (A) (A) (A) (A) (A) (A) (A)
                 (A) (A) (A) (A) (A) (A) (A) (A) (A) (A) (A) (A)
                 (A) (A) (A) (A) (A) (A) (A) (A) (A) (A) (A) (A)
                 (A) (A) (A) (A) (A) (A) (A) (A) (A) (A) (A) (A)
                 (A) (A) (A) (A) (A) (A) (A) (A) (A) (A) (A) (A)
                 (A) (A) (A) (A) (A) (A) (A) (A) (A) (A) (A) (A)
                 (A) (A) (A) (A) (A) (A) (A) (A) (A) (A) (A) (A)
                 (A) (A) (A) (A) (A) (A) (A) (A) (A) (A) (A) (A)
                 (A) (A) (A) (A) (A) (A) (A) (A) (A) (A) (A) (A)
                 (A) (A) (A) (A) (A) (A) (A) (A) (A) (A) (A) (A)
                 (A) (A) (A) (A) (A) (A) (A) (A) (A) (A) (A) (A)
                 (A) (A) (A) (A) (A) (A) (A) (A) (A) (A) (A) (A)
                 (A) (A) (A) (A) (A) (A) (A) (A) (A) (A) (A) (A)
                 (A) (A) (A) (A) (A) (A) (A) (A) (A) (A) (A) (A)
                 (A) (A) (A) (A) (A) (A) (A) (A) (A) (A) (A) (A)
                 (A) (A) (A) (A) (A) (A) (A) (A) (A) (A) (A) (A)
                 (A) (A) (A) (A) (A) (A) (A) (A) (A) (A) (A) (A)
                 (A) (A) (A) (A) (A) (A) (A) (A) (A) (A) (A) (A)
                 (A) (A) (A) (A) (A) (A) (A) (A) (A) (A) (A) (A)
                 (A) (A) (A) (A) (A) (A) (A) (A) (A) (A) (A) (A)
                 (A) (A) (A) (A) (A) (A) (A) (A) (A) (A) (A) (A)
                 (A) (A) (A) (A) (A) (A) (A) (A) (A) (A) (A) (A)
                 (A) (A) (A) (A) (A) (A) (A) (A) (A) (A) (A) (A)
                 (A) (A) (A) (A) (A) (A) (A) (A) (A) (A) (A) (A)
                 (A) (A) (A) (A) (A) (A) (A) (A) (A) (A) (A) (A)
                 (A) (A) (A) (A) (A) (A) (A) (A) (A) (A) (A) (A)
                 (A) (A) (A) (A) (A) (A) (A) (A) (A) (A) (A) (A)
                 (A)
 The electronic state is 1-A.
 Alpha  occ. eigenvalues -- -145.65616 -77.46403 -77.42587 -19.40921 -19.40325
 Alpha  occ. eigenvalues --  -19.36302 -19.36137 -19.35697 -19.33114 -19.32985
 Alpha  occ. eigenvalues --  -19.30695 -19.28265 -19.27181 -15.65269 -14.54993
 Alpha  occ. eigenvalues --  -14.54056 -12.72181 -12.72112 -12.72092 -10.53778
 Alpha  occ. eigenvalues --  -10.53137 -10.42835 -10.41846 -10.40523 -10.38621
 Alpha  occ. eigenvalues --   -6.86831  -6.83010  -4.98934  -4.98730  -4.98646
 Alpha  occ. eigenvalues --   -4.95111  -4.94908  -4.94835  -1.90153  -1.28848
 Alpha  occ. eigenvalues --   -1.28240  -1.21414  -1.20418  -1.19819  -1.17866
 Alpha  occ. eigenvalues --   -1.16857  -1.16474  -1.15974  -1.15638  -1.11359
 Alpha  occ. eigenvalues --   -1.10447  -1.07903  -1.07286  -1.06625  -0.90928
 Alpha  occ. eigenvalues --   -0.89810  -0.83701  -0.81579  -0.77478  -0.76336
 Alpha  occ. eigenvalues --   -0.73974  -0.70220  -0.68235  -0.68103  -0.67411
 Alpha  occ. eigenvalues --   -0.66802  -0.66254  -0.65892  -0.64894  -0.63332
 Alpha  occ. eigenvalues --   -0.62486  -0.61833  -0.60371  -0.60033  -0.59260
 Alpha  occ. eigenvalues --   -0.58515  -0.57057  -0.56764  -0.55401  -0.54960
 Alpha  occ. eigenvalues --   -0.54561  -0.53797  -0.53172  -0.53124  -0.52424
 Alpha  occ. eigenvalues --   -0.51805  -0.50260  -0.50021  -0.49752  -0.49611
 Alpha  occ. eigenvalues --   -0.47308  -0.46939  -0.46319  -0.46176  -0.45476
 Alpha  occ. eigenvalues --   -0.44538  -0.44035  -0.43223  -0.42657  -0.42151
 Alpha  occ. eigenvalues --   -0.40595  -0.40173
 Alpha virt. eigenvalues --   -0.15168  -0.14566  -0.13953  -0.13122  -0.11437
 Alpha virt. eigenvalues --   -0.10736  -0.08398  -0.07868  -0.07288  -0.06708
 Alpha virt. eigenvalues --   -0.05655  -0.05236  -0.04941  -0.04615  -0.04059
 Alpha virt. eigenvalues --   -0.03225  -0.02884  -0.02724  -0.02321  -0.01895
 Alpha virt. eigenvalues --   -0.01559  -0.00973  -0.00861   0.00030   0.00180
 Alpha virt. eigenvalues --    0.00587   0.01486   0.01718   0.02277   0.03249
 Alpha virt. eigenvalues --    0.03531   0.03553   0.03921   0.04302   0.04711
 Alpha virt. eigenvalues --    0.05507   0.06073   0.06943   0.07917   0.08420
 Alpha virt. eigenvalues --    0.08553   0.08801   0.09953   0.10157   0.10512
 Alpha virt. eigenvalues --    0.11174   0.11824   0.12230   0.13003   0.13672
 Alpha virt. eigenvalues --    0.14148   0.15058   0.15541   0.15787   0.16685
 Alpha virt. eigenvalues --    0.17270   0.17609   0.17809   0.18112   0.19086
 Alpha virt. eigenvalues --    0.19610   0.20222   0.20748   0.20905   0.21584
 Alpha virt. eigenvalues --    0.22171   0.22811   0.22926   0.23358   0.23675
 Alpha virt. eigenvalues --    0.24457   0.24878   0.25265   0.25459   0.25938
 Alpha virt. eigenvalues --    0.26231   0.27203   0.27486   0.28126   0.28276
 Alpha virt. eigenvalues --    0.28975   0.29170   0.29458   0.29866   0.30397
 Alpha virt. eigenvalues --    0.30792   0.31341   0.31683   0.31987   0.33242
 Alpha virt. eigenvalues --    0.33830   0.34023   0.34884   0.35592   0.36055
 Alpha virt. eigenvalues --    0.36214   0.36772   0.37057   0.37497   0.38400
 Alpha virt. eigenvalues --    0.38917   0.39403   0.39596   0.40163   0.40926
 Alpha virt. eigenvalues --    0.41315   0.41514   0.41976   0.42338   0.43087
 Alpha virt. eigenvalues --    0.43624   0.44145   0.45555   0.46076   0.46839
 Alpha virt. eigenvalues --    0.46942   0.47931   0.49073   0.49459   0.50398
 Alpha virt. eigenvalues --    0.50695   0.51464   0.51950   0.52336   0.53770
 Alpha virt. eigenvalues --    0.54224   0.54677   0.56179   0.56711   0.57397
 Alpha virt. eigenvalues --    0.58368   0.59410   0.60062   0.60818   0.61033
 Alpha virt. eigenvalues --    0.61876   0.62694   0.63113   0.64236   0.64900
 Alpha virt. eigenvalues --    0.65307   0.65704   0.66212   0.66611   0.67426
 Alpha virt. eigenvalues --    0.67863   0.68926   0.69369   0.69898   0.70921
 Alpha virt. eigenvalues --    0.71372   0.71912   0.72973   0.73554   0.73785
 Alpha virt. eigenvalues --    0.74991   0.75690   0.76747   0.77969   0.79863
 Alpha virt. eigenvalues --    0.80296   0.81072   0.81899   0.82740   0.83665
 Alpha virt. eigenvalues --    0.84437   0.85245   0.86906   0.87606   0.87759
 Alpha virt. eigenvalues --    0.88639   0.89859   0.90563   0.91830   0.92038
 Alpha virt. eigenvalues --    0.92251   0.93872   0.95781   0.96491   0.97534
 Alpha virt. eigenvalues --    0.98508   0.99128   1.00037   1.01012   1.04073
 Alpha virt. eigenvalues --    1.04937   1.05631   1.06937   1.07199   1.09636
 Alpha virt. eigenvalues --    1.11812   1.12491   1.13290   1.14258   1.14737
 Alpha virt. eigenvalues --    1.15398   1.17319   1.17968   1.18145   1.20203
 Alpha virt. eigenvalues --    1.20589   1.21192   1.21575   1.22616   1.22807
 Alpha virt. eigenvalues --    1.23417   1.23727   1.25234   1.25817   1.26363
 Alpha virt. eigenvalues --    1.28072   1.28614   1.29765   1.30033   1.30625
 Alpha virt. eigenvalues --    1.31393   1.32059   1.32449   1.33561   1.34311
 Alpha virt. eigenvalues --    1.34824   1.34969   1.35251   1.36451   1.36906
 Alpha virt. eigenvalues --    1.38232   1.38811   1.39706   1.39948   1.41522
 Alpha virt. eigenvalues --    1.42277   1.42462   1.43218   1.44267   1.46045
 Alpha virt. eigenvalues --    1.46765   1.46836   1.48270   1.48896   1.49427
 Alpha virt. eigenvalues --    1.50888   1.51641   1.52283   1.52357   1.52993
 Alpha virt. eigenvalues --    1.53288   1.53509   1.54275   1.56215   1.56968
 Alpha virt. eigenvalues --    1.57793   1.58970   1.59851   1.61482   1.62086
 Alpha virt. eigenvalues --    1.62768   1.63038   1.64029   1.64818   1.65963
 Alpha virt. eigenvalues --    1.66912   1.67295   1.68630   1.69665   1.69912
 Alpha virt. eigenvalues --    1.71527   1.72833   1.73476   1.74213   1.77101
 Alpha virt. eigenvalues --    1.77883   1.78002   1.78284   1.78887   1.79805
 Alpha virt. eigenvalues --    1.80519   1.80890   1.81776   1.82889   1.83235
 Alpha virt. eigenvalues --    1.84208   1.84631   1.84967   1.85297   1.86049
 Alpha virt. eigenvalues --    1.87038   1.87618   1.88397   1.88688   1.89179
 Alpha virt. eigenvalues --    1.90337   1.90807   1.91934   1.92825   1.93057
 Alpha virt. eigenvalues --    1.94254   1.94579   1.96347   1.97055   1.97617
 Alpha virt. eigenvalues --    1.98376   1.99160   1.99218   2.00387   2.01119
 Alpha virt. eigenvalues --    2.02519   2.02709   2.04321   2.05460   2.05777
 Alpha virt. eigenvalues --    2.06416   2.07535   2.07965   2.09342   2.10647
 Alpha virt. eigenvalues --    2.11280   2.11377   2.12138   2.12609   2.13282
 Alpha virt. eigenvalues --    2.14306   2.15419   2.16618   2.16659   2.18040
 Alpha virt. eigenvalues --    2.18425   2.19496   2.19977   2.20822   2.22010
 Alpha virt. eigenvalues --    2.23328   2.24442   2.25188   2.27007   2.27508
 Alpha virt. eigenvalues --    2.27875   2.29216   2.30647   2.31563   2.32536
 Alpha virt. eigenvalues --    2.33018   2.34618   2.35487   2.36389   2.36945
 Alpha virt. eigenvalues --    2.38074   2.40306   2.40736   2.41774   2.42722
 Alpha virt. eigenvalues --    2.44244   2.45243   2.47115   2.49138   2.49593
 Alpha virt. eigenvalues --    2.50527   2.52128   2.52497   2.53244   2.55706
 Alpha virt. eigenvalues --    2.56239   2.56411   2.57939   2.58518   2.59429
 Alpha virt. eigenvalues --    2.60012   2.61701   2.62633   2.64718   2.65081
 Alpha virt. eigenvalues --    2.66449   2.67644   2.68930   2.69779   2.72159
 Alpha virt. eigenvalues --    2.73066   2.73288   2.76166   2.76259   2.77497
 Alpha virt. eigenvalues --    2.77846   2.78566   2.80342   2.81522   2.83029
 Alpha virt. eigenvalues --    2.83328   2.83691   2.84551   2.85398   2.86017
 Alpha virt. eigenvalues --    2.86335   2.87285   2.89900   2.90641   2.91165
 Alpha virt. eigenvalues --    2.92794   2.93182   2.93806   2.94584   2.95224
 Alpha virt. eigenvalues --    2.95813   2.97293   2.98959   2.99515   3.00079
 Alpha virt. eigenvalues --    3.01099   3.02872   3.03691   3.05055   3.06192
 Alpha virt. eigenvalues --    3.06518   3.06880   3.07096   3.07485   3.08841
 Alpha virt. eigenvalues --    3.09203   3.09908   3.10969   3.11835   3.12921
 Alpha virt. eigenvalues --    3.14018   3.14567   3.15525   3.18658   3.19125
 Alpha virt. eigenvalues --    3.19462   3.20545   3.21102   3.23578   3.24171
 Alpha virt. eigenvalues --    3.24680   3.25674   3.28068   3.28753   3.28910
 Alpha virt. eigenvalues --    3.30294   3.31157   3.31648   3.32189   3.35027
 Alpha virt. eigenvalues --    3.35460   3.36206   3.38628   3.39093   3.41981
 Alpha virt. eigenvalues --    3.43055   3.44642   3.47126   3.48761   3.50796
 Alpha virt. eigenvalues --    3.51420   3.51836   3.52437   3.53104   3.59782
 Alpha virt. eigenvalues --    3.60267   3.64345   3.65058   3.65351   3.66142
 Alpha virt. eigenvalues --    3.66342   3.67870   3.68250   3.69375   3.77694
 Alpha virt. eigenvalues --    3.79250   3.81039   3.82359   3.85896   3.86255
 Alpha virt. eigenvalues --    3.87886   3.88421   3.89252   3.90447   3.91255
 Alpha virt. eigenvalues --    3.93812   3.96182   3.98008   4.01327   4.03438
 Alpha virt. eigenvalues --    4.04576   4.11094   4.11803   4.20147   4.22052
 Alpha virt. eigenvalues --    4.28964   4.30060   4.30717   4.31190   4.36207
 Alpha virt. eigenvalues --    4.36988   4.53990   4.55270   4.57653   4.58078
 Alpha virt. eigenvalues --    4.68980   4.69370   4.84626   4.86460   4.90179
 Alpha virt. eigenvalues --    4.91654   4.91714   4.92492   4.99969   5.00148
 Alpha virt. eigenvalues --    5.00742   5.00857   5.01110   5.01325   5.01904
 Alpha virt. eigenvalues --    5.02289   5.02908   5.04329   5.04692   5.05345
 Alpha virt. eigenvalues --    5.05796   5.05889   5.06328   5.07031   5.07083
 Alpha virt. eigenvalues --    5.07645   5.07834   5.08483   5.09114   5.09436
 Alpha virt. eigenvalues --    5.10760   5.11126   5.12084   5.12932   5.13293
 Alpha virt. eigenvalues --    5.13975   5.15215   5.15799   5.17703   5.18286
 Alpha virt. eigenvalues --    5.20971   5.23002   5.23171   5.23727   5.24094
 Alpha virt. eigenvalues --    5.24233   5.24481   5.24705   5.26242   5.26996
 Alpha virt. eigenvalues --    5.28650   5.29379   5.29981   5.30935   5.32109
 Alpha virt. eigenvalues --    5.34698   5.35280   5.35795   5.36615   5.38705
 Alpha virt. eigenvalues --    5.40029   5.42417   5.43416   5.44799   5.45021
 Alpha virt. eigenvalues --    5.45516   5.45993   5.47249   5.51478   5.52610
 Alpha virt. eigenvalues --    5.57022   5.57809   5.59053   5.63630   5.64119
 Alpha virt. eigenvalues --    5.75748   5.76198   5.76789   5.77389   5.97896
 Alpha virt. eigenvalues --    5.98267   6.04096   6.04794   6.05934   6.07550
 Alpha virt. eigenvalues --    6.17638   6.18665   6.19233   6.22943   6.23919
 Alpha virt. eigenvalues --    6.28838   6.32691   6.33739   6.34811   6.36162
 Alpha virt. eigenvalues --    6.37927   6.39429   6.40648   6.41920   6.43307
 Alpha virt. eigenvalues --    6.44339   6.46683   6.49799   6.52893   6.54239
 Alpha virt. eigenvalues --    6.54796   6.55343   6.56964   6.57715   6.59546
 Alpha virt. eigenvalues --    6.60494   6.61141   6.63343   6.64032   6.64464
 Alpha virt. eigenvalues --    6.69034   6.69368   6.71360   6.72087   6.72793
 Alpha virt. eigenvalues --    6.72941   6.73482   6.74931   6.77598   6.78894
 Alpha virt. eigenvalues --    6.79282   6.79722   6.87189   6.89540   6.90388
 Alpha virt. eigenvalues --    6.92835   6.95454   6.99619   7.00042   7.02216
 Alpha virt. eigenvalues --    7.03647   7.04323   7.15495   7.15912   7.18890
 Alpha virt. eigenvalues --    7.76553   7.77878   7.93258   7.97716   8.12102
 Alpha virt. eigenvalues --    8.19060  16.62273  16.70113  22.24091  22.27309
 Alpha virt. eigenvalues --   22.30955  22.32582  23.08356  23.08885  32.23546
 Alpha virt. eigenvalues --   32.24518  43.46867  43.54107  43.60568  43.64700
 Alpha virt. eigenvalues --   43.67865  43.71448  43.71869  43.74068  43.77350
 Alpha virt. eigenvalues --   43.81972
  Beta  occ. eigenvalues -- -145.65616 -77.46403 -77.42587 -19.40921 -19.40325
  Beta  occ. eigenvalues --  -19.36302 -19.36137 -19.35697 -19.33114 -19.32985
  Beta  occ. eigenvalues --  -19.30695 -19.28265 -19.27181 -15.65269 -14.54993
  Beta  occ. eigenvalues --  -14.54056 -12.72181 -12.72112 -12.72092 -10.53778
  Beta  occ. eigenvalues --  -10.53137 -10.42835 -10.41846 -10.40523 -10.38621
  Beta  occ. eigenvalues --   -6.86831  -6.83010  -4.98934  -4.98730  -4.98646
  Beta  occ. eigenvalues --   -4.95111  -4.94908  -4.94835  -1.90153  -1.28848
  Beta  occ. eigenvalues --   -1.28240  -1.21414  -1.20418  -1.19819  -1.17866
  Beta  occ. eigenvalues --   -1.16857  -1.16474  -1.15974  -1.15638  -1.11359
  Beta  occ. eigenvalues --   -1.10447  -1.07903  -1.07286  -1.06625  -0.90928
  Beta  occ. eigenvalues --   -0.89810  -0.83701  -0.81579  -0.77478  -0.76336
  Beta  occ. eigenvalues --   -0.73974  -0.70220  -0.68235  -0.68103  -0.67411
  Beta  occ. eigenvalues --   -0.66802  -0.66254  -0.65892  -0.64894  -0.63332
  Beta  occ. eigenvalues --   -0.62486  -0.61833  -0.60371  -0.60033  -0.59260
  Beta  occ. eigenvalues --   -0.58515  -0.57057  -0.56764  -0.55401  -0.54960
  Beta  occ. eigenvalues --   -0.54561  -0.53797  -0.53172  -0.53124  -0.52424
  Beta  occ. eigenvalues --   -0.51805  -0.50260  -0.50021  -0.49752  -0.49611
  Beta  occ. eigenvalues --   -0.47308  -0.46939  -0.46319  -0.46176  -0.45476
  Beta  occ. eigenvalues --   -0.44538  -0.44035  -0.43223  -0.42657  -0.42151
  Beta  occ. eigenvalues --   -0.40595  -0.40173
  Beta virt. eigenvalues --   -0.15168  -0.14566  -0.13953  -0.13122  -0.11437
  Beta virt. eigenvalues --   -0.10736  -0.08398  -0.07868  -0.07288  -0.06708
  Beta virt. eigenvalues --   -0.05655  -0.05236  -0.04941  -0.04615  -0.04059
  Beta virt. eigenvalues --   -0.03225  -0.02884  -0.02724  -0.02321  -0.01895
  Beta virt. eigenvalues --   -0.01559  -0.00973  -0.00861   0.00030   0.00180
  Beta virt. eigenvalues --    0.00587   0.01486   0.01718   0.02277   0.03249
  Beta virt. eigenvalues --    0.03531   0.03553   0.03921   0.04302   0.04711
  Beta virt. eigenvalues --    0.05507   0.06073   0.06943   0.07917   0.08420
  Beta virt. eigenvalues --    0.08553   0.08801   0.09953   0.10157   0.10512
  Beta virt. eigenvalues --    0.11174   0.11824   0.12230   0.13003   0.13672
  Beta virt. eigenvalues --    0.14148   0.15058   0.15541   0.15787   0.16685
  Beta virt. eigenvalues --    0.17270   0.17609   0.17809   0.18112   0.19086
  Beta virt. eigenvalues --    0.19610   0.20222   0.20748   0.20905   0.21584
  Beta virt. eigenvalues --    0.22171   0.22811   0.22926   0.23358   0.23675
  Beta virt. eigenvalues --    0.24457   0.24878   0.25265   0.25459   0.25938
  Beta virt. eigenvalues --    0.26231   0.27203   0.27486   0.28126   0.28276
  Beta virt. eigenvalues --    0.28975   0.29170   0.29458   0.29866   0.30397
  Beta virt. eigenvalues --    0.30792   0.31341   0.31683   0.31987   0.33242
  Beta virt. eigenvalues --    0.33830   0.34023   0.34884   0.35592   0.36055
  Beta virt. eigenvalues --    0.36214   0.36772   0.37057   0.37497   0.38400
  Beta virt. eigenvalues --    0.38917   0.39403   0.39596   0.40163   0.40926
  Beta virt. eigenvalues --    0.41315   0.41514   0.41976   0.42338   0.43087
  Beta virt. eigenvalues --    0.43624   0.44145   0.45555   0.46076   0.46839
  Beta virt. eigenvalues --    0.46942   0.47931   0.49073   0.49459   0.50398
  Beta virt. eigenvalues --    0.50695   0.51464   0.51950   0.52336   0.53770
  Beta virt. eigenvalues --    0.54224   0.54677   0.56179   0.56711   0.57397
  Beta virt. eigenvalues --    0.58368   0.59410   0.60062   0.60818   0.61033
  Beta virt. eigenvalues --    0.61876   0.62694   0.63113   0.64236   0.64900
  Beta virt. eigenvalues --    0.65307   0.65704   0.66212   0.66611   0.67426
  Beta virt. eigenvalues --    0.67863   0.68926   0.69369   0.69898   0.70921
  Beta virt. eigenvalues --    0.71372   0.71912   0.72973   0.73554   0.73785
  Beta virt. eigenvalues --    0.74991   0.75690   0.76747   0.77969   0.79863
  Beta virt. eigenvalues --    0.80296   0.81072   0.81899   0.82740   0.83665
  Beta virt. eigenvalues --    0.84437   0.85245   0.86906   0.87606   0.87759
  Beta virt. eigenvalues --    0.88639   0.89859   0.90563   0.91830   0.92038
  Beta virt. eigenvalues --    0.92251   0.93872   0.95781   0.96491   0.97534
  Beta virt. eigenvalues --    0.98508   0.99128   1.00037   1.01012   1.04073
  Beta virt. eigenvalues --    1.04937   1.05631   1.06937   1.07199   1.09636
  Beta virt. eigenvalues --    1.11812   1.12491   1.13290   1.14258   1.14737
  Beta virt. eigenvalues --    1.15398   1.17319   1.17968   1.18145   1.20203
  Beta virt. eigenvalues --    1.20589   1.21192   1.21575   1.22616   1.22807
  Beta virt. eigenvalues --    1.23417   1.23727   1.25234   1.25817   1.26363
  Beta virt. eigenvalues --    1.28072   1.28614   1.29765   1.30033   1.30625
  Beta virt. eigenvalues --    1.31393   1.32059   1.32449   1.33561   1.34311
  Beta virt. eigenvalues --    1.34824   1.34969   1.35251   1.36451   1.36906
  Beta virt. eigenvalues --    1.38232   1.38811   1.39706   1.39948   1.41522
  Beta virt. eigenvalues --    1.42277   1.42462   1.43218   1.44267   1.46045
  Beta virt. eigenvalues --    1.46765   1.46836   1.48270   1.48896   1.49427
  Beta virt. eigenvalues --    1.50888   1.51641   1.52283   1.52357   1.52993
  Beta virt. eigenvalues --    1.53288   1.53509   1.54275   1.56215   1.56968
  Beta virt. eigenvalues --    1.57793   1.58970   1.59851   1.61482   1.62086
  Beta virt. eigenvalues --    1.62768   1.63038   1.64029   1.64818   1.65963
  Beta virt. eigenvalues --    1.66912   1.67295   1.68630   1.69665   1.69912
  Beta virt. eigenvalues --    1.71527   1.72833   1.73476   1.74213   1.77101
  Beta virt. eigenvalues --    1.77883   1.78002   1.78284   1.78887   1.79805
  Beta virt. eigenvalues --    1.80519   1.80890   1.81776   1.82889   1.83235
  Beta virt. eigenvalues --    1.84208   1.84631   1.84967   1.85297   1.86049
  Beta virt. eigenvalues --    1.87038   1.87618   1.88397   1.88688   1.89179
  Beta virt. eigenvalues --    1.90337   1.90807   1.91934   1.92825   1.93057
  Beta virt. eigenvalues --    1.94254   1.94579   1.96347   1.97055   1.97617
  Beta virt. eigenvalues --    1.98376   1.99160   1.99218   2.00387   2.01119
  Beta virt. eigenvalues --    2.02519   2.02709   2.04321   2.05460   2.05777
  Beta virt. eigenvalues --    2.06416   2.07535   2.07965   2.09342   2.10647
  Beta virt. eigenvalues --    2.11280   2.11377   2.12138   2.12609   2.13282
  Beta virt. eigenvalues --    2.14306   2.15419   2.16618   2.16659   2.18040
  Beta virt. eigenvalues --    2.18425   2.19496   2.19977   2.20822   2.22010
  Beta virt. eigenvalues --    2.23328   2.24442   2.25188   2.27007   2.27508
  Beta virt. eigenvalues --    2.27875   2.29216   2.30647   2.31563   2.32536
  Beta virt. eigenvalues --    2.33018   2.34618   2.35487   2.36389   2.36945
  Beta virt. eigenvalues --    2.38074   2.40306   2.40736   2.41774   2.42722
  Beta virt. eigenvalues --    2.44244   2.45243   2.47115   2.49138   2.49593
  Beta virt. eigenvalues --    2.50527   2.52128   2.52497   2.53244   2.55706
  Beta virt. eigenvalues --    2.56239   2.56411   2.57939   2.58518   2.59429
  Beta virt. eigenvalues --    2.60012   2.61701   2.62633   2.64718   2.65081
  Beta virt. eigenvalues --    2.66449   2.67644   2.68930   2.69779   2.72159
  Beta virt. eigenvalues --    2.73066   2.73288   2.76166   2.76259   2.77497
  Beta virt. eigenvalues --    2.77846   2.78566   2.80342   2.81522   2.83029
  Beta virt. eigenvalues --    2.83328   2.83691   2.84551   2.85398   2.86017
  Beta virt. eigenvalues --    2.86335   2.87285   2.89900   2.90641   2.91165
  Beta virt. eigenvalues --    2.92794   2.93182   2.93806   2.94584   2.95224
  Beta virt. eigenvalues --    2.95813   2.97293   2.98959   2.99515   3.00079
[...]
 644,-0.00044542,0.00058726,0.00029145,0.00012850,0.00010231,0.00022492
 ,0.00023023,0.00033908,0.00006121,0.00012579,0.00007466,0.00005318,-0.
 01813144,-0.00284117,-0.01589597,0.13761507,0.01221786,0.17023993,-0.0
 0018027,-0.00002264,-0.00010099,0.00003666,0.00001477,-0.00004845,-0.0
 0007756,-0.00001456,0.00004821,0.00005518,0.00003995,0.00001684,0.0000
 6153,-0.00006833,0.00022166,0.00008453,-0.00014039,0.00010696,-0.00037
 045,0.00122446,-0.00089176,-0.00050652,-0.00056754,0.00039385,0.000743
 49,-0.00075428,0.00123141,0.00013857,-0.00020351,0.00011927,0.00090357
 ,0.00009268,-0.00042986,0.00077050,0.00077318,-0.00405743,-0.00001296,
 -0.00003160,-0.00002380,0.00006452,0.00001218,0.00001228,-0.00001441,-
 0.00000761,0.00001253,-0.00002508,-0.00000487,-0.00000488,0.00006792,0
 .00001565,0.00005422,-0.00001369,0.00001872,0.00006114,0.00011083,-0.0
 0078322,0.00026552,-0.00042426,0.00046052,-0.00017774,-0.00031250,-0.0
 0055347,0.00055542,-0.00970933,-0.00261151,0.03696279,-0.03050564,0.01
 714465,-0.01142055,-0.00057340,-0.00215727,-0.00393724,0.00041174,0.00
 007814,0.00114899,-0.00101112,-0.00007012,-0.00121260,-0.00137379,0.00
 113481,-0.00062572,0.00056700,0.00037309,-0.00078814,-0.00001463,0.000
 01360,-0.00010354,-0.00457358,0.00335706,0.00237415,0.00164508,-0.0009
 5842,0.00001314,0.04391293,-0.00013618,0.00002486,-0.00006820,0.000031
 37,0.00001095,-0.00001555,-0.00002019,-0.00000008,-0.00000558,0.000042
 83,0.00001709,0.00001139,0.00008152,-0.00008670,0.00015103,-0.00000195
 ,0.00000236,0.00000269,-0.00002146,-0.00011179,0.00011279,0.00026316,0
 .00006420,-0.00018429,-0.00002563,-0.00017249,-0.00000857,0.00005071,0
 .00000280,-0.00003137,-0.00046661,-0.00002280,0.00031053,0.00033002,0.
 00080209,-0.00209028,-0.00001615,-0.00001066,-0.00001621,0.00001161,0.
 00000165,-0.00000045,-0.00000525,-0.00000578,0.00000495,-0.00000755,-0
 .00000235,0.00000370,0.00000139,-0.00002942,-0.00001188,-0.00000017,0.
 00000325,0.00000082,0.00262143,0.00173783,-0.00157274,-0.00010339,-0.0
 0094120,0.00009600,-0.00125753,-0.00108057,0.00067435,-0.00088430,0.00
 141420,-0.01435232,0.01342179,-0.04771206,0.03175732,0.00117737,-0.012
 91897,0.03880631,-0.00072385,-0.00507821,-0.00322122,-0.00051598,0.001
 19461,-0.00064493,0.00155399,-0.00072695,0.00136209,-0.00069731,0.0002
 3937,0.00112921,0.00010931,-0.00008058,0.00003793,0.00092113,-0.000929
 27,-0.00037835,0.00094932,0.00038540,0.00028709,-0.01648998,0.06192559
 ,-0.00025633,-0.00004745,-0.00005095,-0.00000904,-0.00002477,0.0000058
 7,0.00009199,-0.00003943,0.00005170,0.00011753,0.00008593,-0.00001697,
 0.00023096,0.00006447,0.00007477,0.00002349,-0.00000207,0.00002493,-0.
 00031961,0.00046971,-0.00020402,-0.00007344,-0.00020005,0.00008143,0.0
 0041228,-0.00036926,0.00013563,0.00015117,-0.00009835,-0.00003715,0.00
 018109,0.00004673,-0.00011509,-0.00084566,0.00009876,-0.00226920,-0.00
 001700,-0.00002560,0.00001470,0.00000180,0.00000372,-0.00001217,0.0000
 0401,0.00000235,0.00000449,-0.00000772,-0.00000152,0.00000275,0.000010
 55,0.00000649,0.00000917,0.00000564,-0.00000441,0.00001707,0.00158195,
 0.00002489,-0.00108214,-0.00036059,0.00005458,-0.00003372,-0.00030122,
 -0.00014526,0.00027011,-0.00356413,0.00010354,-0.01074512,0.02672683,0
 .05449086,-0.41581626,-0.00300046,-0.00081298,-0.00546605,-0.00049055,
 0.00060380,0.00090501,-0.00011931,0.00017944,-0.00002725,-0.00017640,0
 .00016749,-0.00021264,0.00005575,-0.00007316,0.00013544,0.00007674,-0.
 00008732,0.00007396,0.00070019,-0.00135490,0.00081171,-0.00083789,0.00
 043470,0.00239326,-0.02035243,-0.05212685,0.42957333,0.00010898,0.0000
 9325,-0.00000159,0.00003749,0.00002863,-0.00001324,-0.00005534,-0.0000
 2204,-0.00001151,-0.00006410,-0.00007846,0.00002211,-0.00008302,-0.000
 06723,-0.00001164,-0.00002006,0.00007025,-0.00002588,0.00084454,-0.000
 68408,0.00044291,-0.00004891,0.00025603,-0.00009141,-0.00079536,-0.000
 01560,-0.00031906,-0.00025700,0.00014034,0.00005552,-0.00001069,-0.000
 21185,0.00009766,0.00015133,0.00074879,0.00011180,0.00000826,0.0000211
 3,-0.00000843,0.00000459,0.00000167,0.00001026,-0.00000551,-0.00000882
 ,-0.00000304,0.00001111,0.00000088,0.00000372,0.00001245,-0.00001550,0
 .00000654,-0.00001187,-0.00001946,-0.00002671,-0.00006173,0.00003605,-
 0.00000986,0.00004691,-0.00010461,-0.00004575,-0.00010026,0.00011795,0
 .00018849,0.00299878,0.00041331,0.00130348,0.00806796,0.00348236,0.002
 19802,-0.22455478,-0.10537400,-0.05647696,-0.00574093,-0.00372118,0.00
 267308,0.00044863,0.00032774,-0.00057847,0.00049061,0.00133730,-0.0009
 8485,0.00117864,0.00046047,0.00085046,-0.00001215,0.00002273,-0.000004
 40,0.00010101,-0.00007213,-0.00006506,0.00032331,-0.00103509,-0.000906
 40,-0.00007394,-0.00067876,0.00041243,0.23442506,0.00023142,-0.0000633
 8,0.00009298,-0.00003349,-0.00000228,0.00001276,-0.00007189,0.00010586
 ,-0.00007703,-0.00008398,-0.00001829,-0.00001422,-0.00023415,-0.000022
 90,-0.00008047,-0.00000498,-0.00007443,-0.00001218,-0.00044733,-0.0001
 3939,-0.00012701,0.00027157,0.00012065,-0.00000536,0.00035869,0.000505
 59,0.00007921,0.00011141,0.00001098,-0.00003420,-0.00033619,0.00011770
 ,0.00002468,0.00123163,-0.00092233,0.00123660,0.00001424,0.00001050,-0
 .00000021,-0.00001537,-0.00000588,0.00000803,0.00000158,0.00000706,-0.
 00000386,0.00000031,-0.00000042,-0.00000757,-0.00002185,0.00001434,-0.
 00001528,0.00000147,0.00002940,0.00000786,-0.00081784,-0.00029870,-0.0
 0038556,0.00036843,-0.00025682,-0.00003967,0.00088395,-0.00024021,-0.0
 0037587,-0.00377091,0.00272307,0.00135462,-0.02353905,-0.03207798,-0.0
 0502189,-0.10043999,-0.10600510,-0.03124275,0.00126837,0.00234267,-0.0
 0361610,0.00057958,0.00178883,0.00147236,-0.00031427,-0.00122930,0.000
 17180,0.00016403,-0.00010361,0.00068937,-0.00002214,0.00003424,0.00006
 695,0.00029485,-0.00012288,-0.00044200,0.00055606,-0.00029091,0.000253
 06,0.00001121,0.00058994,-0.00107689,0.11553974,0.12723294,0.00001213,
 0.00005995,-0.00003321,0.00003315,0.00004940,-0.00003272,-0.00009798,-
 0.00002885,0.00005128,-0.00002340,-0.00004714,0.00001832,-0.00001903,-
 0.00006440,0.00002750,0.00001545,-0.00002545,0.00004591,0.00000565,0.0
 0006001,-0.00041253,-0.00004261,-0.00002508,0.00012747,0.00023793,0.00
 007505,0.00036359,-0.00002301,0.00000114,0.00005634,0.00026766,-0.0000
 5016,-0.00009664,-0.00012540,0.00091581,-0.00111760,-0.00000020,0.0000
 1011,-0.00000610,0.00008993,0.00002683,0.00003099,-0.00001436,-0.00001
 266,0.00000579,-0.00000993,-0.00000848,0.00000310,0.00008953,-0.000043
 12,0.00003554,-0.00002655,-0.00001049,0.00001753,-0.00016242,-0.000405
 59,-0.00040607,-0.00001191,0.00017129,0.00005481,0.00029283,0.00025029
 ,0.00035706,0.00057217,-0.00074206,-0.00010393,0.00707176,0.00712327,0
 .00342042,-0.06361947,-0.03694242,-0.06283579,-0.02045919,-0.01364819,
 -0.00065306,-0.00182816,-0.00337393,-0.00665808,0.00072536,0.00345483,
 -0.00150088,0.00184453,0.00073381,0.00209522,-0.00000256,-0.00002014,-
 0.00000776,-0.00013790,-0.00051179,-0.00026416,-0.00019802,-0.00023827
 ,-0.00013424,0.00105722,0.00031516,0.00056212,0.05970481,0.03365510,0.
 06218904,-0.00005447,-0.00006858,0.00000554,-0.00003372,-0.00000607,-0
 .00000279,-0.00002598,0.00003770,0.00007558,0.00003418,0.00004896,-0.0
 0001390,0.00002708,0.00003809,0.00000757,0.00007199,-0.00001981,0.0000
 1807,-0.00121753,-0.00046477,-0.00059577,0.00001463,0.00005311,0.00044
 692,-0.00090634,0.00028717,0.00030501,0.00017719,0.00005680,-0.0000079
 6,0.00048136,0.00037945,-0.00067752,0.00029125,-0.00017659,-0.00031464
 ,-0.00000447,-0.00001392,0.00000452,0.00003751,0.00001521,0.00000868,0
 .00000086,0.00000078,0.00000156,-0.00000824,-0.00000464,-0.00000305,0.
 00001937,0.00000623,-0.00000072,-0.00000392,0.00001696,0.00003850,-0.0
 0022086,-0.00024634,-0.00026520,-0.00004936,0.00015935,0.00006292,0.00
 013773,0.00012979,0.00008856,0.00112145,0.00057146,0.00010136,-0.00140
 330,0.00163138,0.00031966,-0.20106358,0.06769944,0.11213377,0.00352979
 ,-0.00236481,-0.00147424,-0.00173646,-0.00050085,-0.00014193,0.0000574
 0,-0.00038001,-0.00031272,0.00117393,0.00119409,-0.00095550,-0.0000023
 0,-0.00002705,0.00000583,0.00008184,0.00004163,-0.00029042,0.00005713,
 -0.00020715,-0.00002292,0.00016146,0.00044782,-0.00003688,-0.01738056,
 0.00827091,0.01479030,0.21658997,-0.00002699,-0.00009605,0.00001226,-0
 .00003463,-0.00002349,0.00000433,0.00003442,0.00001868,-0.00002202,0.0
 0002682,0.00005668,-0.00001704,-0.00000629,0.00007142,0.00002065,0.000
 04741,-0.00018197,0.00008701,-0.00081902,0.00166377,-0.00059029,-0.000
 05401,-0.00072602,-0.00017682,0.00127517,-0.00031857,0.00076163,0.0002
 3870,-0.00025141,-0.00002519,0.00003666,0.00022220,0.00051676,0.000543
 43,-0.00116496,-0.00052805,0.00000041,-0.00001864,0.00000083,0.0000097
 9,-0.00001392,-0.00000043,0.00000334,0.00000909,0.00000319,-0.00001404
 ,0.00000224,-0.00000574,-0.00000756,0.00001458,0.00001334,0.00000343,0
 .00002927,0.00004911,0.00204884,0.00078247,0.00026069,0.00004392,-0.00
 095718,-0.00036994,-0.00065173,-0.00024104,-0.00009609,-0.00072238,-0.
 00558583,0.00157445,0.02680354,-0.01810878,-0.01909460,0.06133052,-0.0
 7213714,-0.04432236,-0.00378224,0.00119792,-0.00091753,0.00035990,0.00
 060973,0.00026104,0.00046657,-0.00094735,0.00060628,-0.00041635,-0.000
 93120,0.00231679,0.00008137,-0.00006272,-0.00001303,-0.00032953,-0.000
 13695,0.00003975,0.00034043,-0.00039583,-0.00014060,0.00072766,0.00139
 057,-0.00036404,-0.01100867,0.00611987,0.00902744,-0.07657691,0.089806
 23,-0.00000694,-0.00013224,0.00003395,-0.00006318,0.00000734,-0.000000
 95,-0.00007855,0.00010129,0.00007384,0.00002777,0.00007045,-0.00002627
 ,-0.00002149,0.00007525,-0.00000899,0.00001812,-0.00009086,-0.00000622
 ,-0.00165412,-0.00025224,-0.00072510,0.00060009,0.00016022,0.00022278,
 0.00132689,0.00065867,0.00004850,0.00043164,-0.00002765,-0.00008624,-0
 .00066159,0.00039760,-0.00065124,0.00051878,-0.00078688,-0.00058627,-0
 .00000101,-0.00001863,0.00000624,0.00007268,0.00002322,0.00001808,-0.0
 0000131,0.00000446,0.00000530,-0.00002138,-0.00001500,-0.00000628,0.00
 001939,-0.00003083,-0.00001495,-0.00000573,0.00003204,0.00003988,-0.00
 043641,0.00004292,0.00021991,-0.00005333,0.00023311,0.00006526,-0.0000
 1489,0.00001104,-0.00003260,-0.00041015,0.00221982,0.00038539,-0.00779
 466,0.00624124,0.00435125,0.12255006,-0.05529343,-0.12966698,0.0214637
 2,-0.00918272,-0.01066419,-0.00398394,-0.00053804,-0.00110784,-0.00107
 340,-0.00027482,0.00360028,0.00087855,0.00326527,-0.00466981,-0.000016
 22,0.00005759,-0.00000902,-0.00008893,0.00003203,0.00004127,-0.0000627
 6,-0.00019901,0.00005828,-0.00042738,-0.00039252,0.00092209,-0.0082378
 6,0.00338977,0.00515544,-0.12299318,0.05084054,0.13385352,0.00023934,0
 .00054441,-0.00022405,0.00011608,-0.00026515,-0.00007178,-0.00026824,0
 .00003220,-0.00006146,-0.00021560,-0.00030510,0.00012112,-0.00009607,-
 0.00020043,0.00003263,-0.00086974,-0.00092608,0.00014523,-0.01910694,0
 .02890894,0.01822208,0.00625004,0.00013394,-0.00368691,-0.00322918,-0.
 00090404,-0.00085118,-0.05395235,0.09829604,0.05696584,-0.00345205,-0.
 00036613,0.00118253,-0.00022987,0.00038953,-0.00001567,0.00003693,0.00
 005958,-0.00002772,0.00004580,-0.00001109,-0.00000116,0.00004339,-0.00
 006035,-0.00006237,0.00009978,0.00036729,0.00022922,0.00021915,0.00011
 438,0.00037241,0.00008147,-0.00006105,0.00012735,-0.00017711,0.0001658
 1,0.00003496,0.00013557,-0.00013543,-0.00003763,0.00012693,-0.00010262
 ,0.00000148,-0.00010306,0.00000481,0.00004442,0.00010311,-0.00012059,0
 .00004032,-0.00001298,0.00001851,-0.00001805,-0.00102968,0.00137026,0.
 00009295,0.00009647,-0.00046795,-0.00007958,0.00232222,-0.00071746,-0.
 00076760,0.00056906,-0.00017081,-0.00019823,-0.00002242,0.00003878,0.0
 0000687,-0.00001654,0.00001627,-0.00001274,0.00001734,-0.00000787,0.00
 000019,-0.00000394,-0.00000662,-0.00000489,0.00001935,-0.00002323,0.00
 000695,-0.00006915,0.00002046,-0.00006748,0.07246836,-0.00003909,-0.00
 024569,0.00004625,-0.00024613,-0.00005447,0.00004674,-0.00004377,0.000
 14139,0.00016318,0.00006611,0.00018437,-0.00002736,-0.00001926,0.00014
 103,-0.00000508,-0.00260009,-0.00003797,0.00207728,0.00129021,0.002496
 59,-0.00063729,-0.00285221,-0.00437796,0.00132667,-0.00241252,0.001433
 84,0.00003702,0.13181775,-0.39677134,-0.19450856,0.00023943,-0.0003349
 7,-0.00006498,0.00070932,-0.00029088,-0.00011498,-0.00000545,-0.000065
 51,-0.00000424,0.00008781,0.00011620,0.00000104,0.00004040,-0.00000747
 ,-0.00002446,0.00007646,-0.00013584,-0.00010234,-0.00002083,0.00038167
 ,0.00068117,-0.00008650,0.00009801,-0.00030874,0.00025305,0.00000997,0
 .00001284,-0.00013231,0.00006621,0.00001977,-0.00023120,0.00000732,-0.
 00003004,0.00003221,-0.00004565,-0.00001549,-0.00013030,-0.00007080,0.
 00000315,-0.00000855,-0.00000077,-0.00002339,0.00034152,0.00059566,0.0
 0003223,-0.00036156,-0.00032158,0.00001040,-0.00011443,-0.00022299,0.0
 0000919,-0.00015159,-0.00012897,0.00006847,0.00002388,-0.00002259,-0.0
 0000756,0.00000698,0.00000611,0.00000071,-0.00001241,0.00000796,-0.000
 00306,0.00004676,0.00001322,0.00001893,-0.00003665,0.00000169,-0.00000
 580,0.00002476,0.00005255,0.00001666,-0.12556411,0.39733583,-0.0001541
 5,-0.00036570,0.00015128,-0.00011214,0.00009359,0.00019105,-0.00001207
 ,0.00012717,-0.00039940,0.00013138,0.00018551,-0.00010135,0.00003815,0
 .00017655,-0.00006222,0.00442911,0.00084295,-0.00096127,0.00868472,-0.
 01030336,-0.00747109,-0.00530746,-0.00114003,0.00097856,-0.00578442,0.
 00167282,-0.00046211,0.06899608,-0.18136464,-0.08766594,0.00178939,0.0
 0017282,-0.00127071,0.00038688,-0.00051035,-0.00014588,-0.00002495,-0.
 00003805,0.00004600,-0.00003205,-0.00012133,0.00000544,0.00000456,-0.0
 0000886,0.00000343,-0.00001626,-0.00024651,-0.00014750,-0.00007837,-0.
 00058535,-0.00096299,-0.00010658,-0.00009559,0.00006460,0.00016721,-0.
 00005605,0.00000825,-0.00010318,0.00007532,0.00001302,-0.00015129,0.00
 005595,-0.00003700,0.00004671,-0.00002030,-0.00003013,-0.00011970,0.00
 003151,-0.00005025,-0.00004258,0.00000628,-0.00003194,0.00074512,-0.00
 067245,0.00008154,-0.00016196,0.00016751,0.00008612,-0.00139731,0.0004
 1351,0.00041103,-0.00034491,0.00009665,0.00006330,0.00001556,-0.000024
 88,0.00000395,0.00001308,-0.00001093,0.00000772,-0.00001814,0.00000654
 ,0.00000434,-0.00001334,0.00002318,0.00003153,-0.00004582,0.00001949,0
 .00000069,0.00001868,0.00003646,0.00009752,-0.07152432,0.19132552,0.09
 758425,-0.00003290,-0.00017051,0.00005859,-0.00010290,0.00000122,0.000
 01534,-0.00002728,0.00015498,0.00002341,0.00005247,0.00011679,-0.00003
 813,0.00000088,0.00008811,-0.00002422,0.00000461,-0.00005384,-0.000034
 26,-0.00062273,-0.00170762,0.00029809,0.00221172,0.00104986,-0.0008521
 8,-0.00011328,0.00054171,-0.00011164,0.00040491,0.00026152,-0.00015342
 ,-0.00312077,-0.00004070,0.00130929,0.00008926,-0.00019770,-0.00014103
 ,-0.00000616,-0.00003007,0.00000640,0.00002891,0.00000228,0.00001176,0
 .00000656,0.00000614,0.00000127,-0.00001015,-0.00001841,-0.00000786,-0
 .00004612,-0.00010204,-0.00006881,-0.00000437,0.00003371,0.00000443,0.
 00020640,-0.00049081,-0.00023758,-0.00021524,0.00022557,0.00009669,-0.
 00003942,0.00014929,0.00005410,-0.00006673,0.00031882,0.00001678,-0.00
 024911,-0.00004162,-0.00011146,-0.00062888,0.00063370,0.00060760,-0.00
 840477,-0.03194378,0.01406142,-0.00527584,-0.00212620,0.00099537,0.005
 04458,0.00295965,-0.00407982,-0.02339002,-0.02181199,0.01704705,0.0000
 3476,-0.00003573,-0.00001667,0.00034898,-0.00040752,0.00034193,0.00002
 820,0.00008782,-0.00011812,0.00004155,0.00004410,-0.00001086,-0.000002
 78,0.00001721,-0.00001526,0.00011415,0.00000757,0.00026820,-0.00013548
 ,0.00001228,0.00008435,0.03387701,-0.00021388,-0.00009771,-0.00001382,
 -0.00004716,-0.00004805,0.00002340,0.00013025,0.00001710,0.00002077,0.
 00011166,0.00011365,-0.00002706,0.00018169,0.00007992,0.00002993,0.000
 00084,0.00000484,-0.00000270,-0.00051829,-0.00014006,-0.00001484,0.000
 96024,0.00021034,-0.00034015,0.00026881,-0.00002968,0.00001472,0.00028
 795,0.00000220,-0.00008678,-0.00134089,0.00005949,0.00054490,-0.000486
 73,-0.00040773,0.00009782,-0.00001775,-0.00003045,0.00001115,-0.000049
 98,-0.00000470,-0.00002170,0.00001011,0.00001259,0.00000274,-0.0000067
 6,-0.00000088,-0.00000502,-0.00006959,0.00001230,-0.00003005,0.0000252
 9,0.00001521,0.00000634,0.00011486,-0.00034606,-0.00008740,-0.00014476
 ,0.00020243,0.00003915,-0.00000995,0.00017182,0.00002026,0.00022889,0.
 00014454,-0.00014460,-0.00010961,0.00011094,-0.00014646,0.00203737,0.0
 0022438,-0.00192995,-0.00387767,-0.00568950,0.00268453,0.00081292,0.00
 211637,0.00028436,0.00500945,-0.00342637,-0.00197551,-0.05559228,-0.46
 895774,0.16162398,0.00002627,-0.00005654,0.00000200,0.00000379,-0.0002
 8973,0.00019027,-0.00002834,-0.00000149,0.00002137,-0.00009974,0.00008
 991,-0.00000207,0.00005549,0.00011947,0.00027452,-0.00005358,0.0002517
 8,-0.00064564,-0.00006510,0.00004584,0.00003506,0.05246619,0.47552156,
 0.00017355,0.00008612,0.00002702,0.00003957,0.00003279,-0.00002630,-0.
 00012364,-0.00005872,-0.00005859,-0.00009154,-0.00009687,0.00001355,-0
 .00015169,-0.00008449,-0.00004646,-0.00003359,-0.00002485,-0.00003131,
 0.00060390,0.00074100,0.00007799,-0.00127944,-0.00051993,0.00044396,-0
 .00019204,-0.00014629,0.00004819,-0.00028207,-0.00012003,0.00003760,0.
 00175390,-0.00004126,-0.00082984,0.00026580,0.00042558,-0.00011221,0.0
 0001073,0.00002810,0.00000022,0.00000418,-0.00002347,0.00004761,-0.000
 01623,-0.00001212,0.00000298,0.00000903,0.00000917,0.00000550,0.000038
 16,-0.00000762,0.00011800,-0.00003906,-0.00002880,0.00000199,-0.000207
 94,0.00028462,0.00008716,0.00015065,-0.00016175,-0.00007694,0.00007190
 ,-0.00016142,-0.00003641,-0.00019305,-0.00001586,0.00033066,-0.0001661
 7,-0.00041072,-0.00007479,0.00388233,-0.00043410,-0.00167667,0.0073260
 5,0.01615314,-0.00775300,-0.00344866,-0.00291873,0.00092802,-0.0051049
 5,-0.00040209,0.00012579,0.02676795,0.14776582,-0.05293302,-0.00003019
 ,0.00003966,0.00003280,0.00001430,0.00019867,-0.00021628,0.00001961,0.
 00004237,-0.00004474,-0.00003978,0.00003476,-0.00001235,-0.00021338,0.
 00004346,-0.00035540,-0.00032369,0.00025120,-0.00093584,0.00008628,-0.
 00001383,-0.00003385,-0.02928076,-0.16045355,0.06292494\\-0.00000139,-
 0.00000113,0.00000475,-0.00000282,0.00000027,0.00000631,0.00001472,-0.
 00000459,-0.00000021,-0.00000179,-0.00000199,0.00000373,-0.00000292,0.
 00000942,0.00000180,-0.00000396,0.00001239,-0.00000279,-0.00001322,0.0
 0002171,-0.00000687,-0.00001832,-0.00000998,-0.00000056,0.00000487,-0.
 00001094,0.00000432,0.00001772,0.00000733,-0.00000077,0.00001629,0.000
 00278,-0.00000639,0.00001616,0.00000893,0.00001644,-0.00000071,-0.0000
 0024,0.00000826,-0.00000858,-0.00000131,-0.00000168,-0.00000022,-0.000
 00188,0.00000342,-0.00000111,-0.00000005,0.00000296,-0.00000179,-0.000
 00309,0.00000267,-0.00000317,-0.00000325,-0.00000212,-0.00000795,0.000
 00474,0.00001155,0.00000574,-0.00000056,-0.00000547,-0.00000337,-0.000
 01623,0.00000872,-0.00000082,0.00000879,-0.00000357,0.00000922,-0.0000
 0825,0.00000300,-0.00000156,-0.00000519,-0.00000840,-0.00000173,-0.000
 00685,-0.00001259,-0.00000964,0.00000533,-0.00000975,0.00000637,0.0000
 0090,-0.00000312,-0.00000476,0.00000559,0.00001585,-0.00000005,-0.0000
 0335,0.00000255,0.00000201,0.00000179,0.00000042,-0.00000023,-0.000002
 82,-0.00000118,0.00000122,0.00000397,-0.00000097,0.00000152,-0.0000000
 8,-0.00000275,-0.00000084,0.00000318,-0.00000399,-0.00000402,-0.000008
 28,-0.00000349,-0.00000086,-0.00000707,-0.00002007\\\@
 The archive entry for this job was punched.


 A MAN SHOULD NEVER BE ASHAMED TO OWN HE HAS BEEN IN THE WRONG
 WHICH IS BUT SAYING IN OTHER WORDS,
 THAT HE IS WISER TODAY THAN HE WAS YESTERDAY.

                          -- JONATHAN SWIFT
 Job cpu time:       2 days  4 hours 28 minutes 52.0 seconds.
 Elapsed time:       0 days  1 hours 29 minutes 47.1 seconds.
 File lengths (MBytes):  RWF=   3373 Int=      0 D2E=      0 Chk=     65 Scr=      1
 Normal termination of Gaussian 16 at Mon Jul 29 21:42:02 2024.
