 Entering Gaussian System, Link 0=g16
 Initial command:
 /apps/gaussian/g16c01/g16/l1.exe "/jobfs/121947565.gadi-pbs/Gau-3475205.inp" -scrdir="/jobfs/121947565.gadi-pbs/"
 Entering Link 1 = /apps/gaussian/g16c01/g16/l1.exe PID=   3475206.
  
 Copyright (c) 1988-2019, Gaussian, Inc.  All Rights Reserved.
  
 This is part of the Gaussian(R) 16 program.  It is based on
 the Gaussian(R) 09 system (copyright 2009, Gaussian, Inc.),
 the Gaussian(R) 03 system (copyright 2003, Gaussian, Inc.),
 the Gaussian(R) 98 system (copyright 1998, Gaussian, Inc.),
 the Gaussian(R) 94 system (copyright 1995, Gaussian, Inc.),
 the Gaussian 92(TM) system (copyright 1992, Gaussian, Inc.),
 the Gaussian 90(TM) system (copyright 1990, Gaussian, Inc.),
 the Gaussian 88(TM) system (copyright 1988, Gaussian, Inc.),
 the Gaussian 86(TM) system (copyright 1986, Carnegie Mellon
 University), and the Gaussian 82(TM) system (copyright 1983,
 Carnegie Mellon University). Gaussian is a federally registered
 trademark of Gaussian, Inc.
  
 This software contains proprietary and confidential information,
 including trade secrets, belonging to Gaussian, Inc.
  
 This software is provided under written license and may be
 used, copied, transmitted, or stored only in accord with that
 written license.
  
 The following legend is applicable only to US Government
 contracts under FAR:
  
                    RESTRICTED RIGHTS LEGEND
  
 Use, reproduction and disclosure by the US Government is
 subject to restrictions as set forth in subparagraphs (a)
 and (c) of the Commercial Computer Software - Restricted
 Rights clause in FAR 52.227-19.
  
 Gaussian, Inc.
 340 Quinnipiac St., Bldg. 40, Wallingford CT 06492
  
  
 ---------------------------------------------------------------
 Warning -- This program may not be used in any manner that
 competes with the business of Gaussian, Inc. or will provide
 assistance to any competitor of Gaussian, Inc.  The licensee
 of this program is prohibited from giving any competitor of
 Gaussian, Inc. access to this program.  By using this program,
 the user acknowledges that Gaussian, Inc. is engaged in the
 business of creating and licensing software in the field of
 computational chemistry and represents and warrants to the
 licensee that it is not a competitor of Gaussian, Inc. and that
 it will not use this program in any manner prohibited above.
 ---------------------------------------------------------------
  

 Cite this work as:
 Gaussian 16, Revision C.01,
 M. J. Frisch, G. W. Trucks, H. B. Schlegel, G. E. Scuseria, 
 M. A. Robb, J. R. Cheeseman, G. Scalmani, V. Barone, 
 G. A. Petersson, H. Nakatsuji, X. Li, M. Caricato, A. V. Marenich, 
 J. Bloino, B. G. Janesko, R. Gomperts, B. Mennucci, H. P. Hratchian, 
 J. V. Ortiz, A. F. Izmaylov, J. L. Sonnenberg, D. Williams-Young, 
 F. Ding, F. Lipparini, F. Egidi, J. Goings, B. Peng, A. Petrone, 
 T. Henderson, D. Ranasinghe, V. G. Zakrzewski, J. Gao, N. Rega, 
 G. Zheng, W. Liang, M. Hada, M. Ehara, K. Toyota, R. Fukuda, 
 J. Hasegawa, M. Ishida, T. Nakajima, Y. Honda, O. Kitao, H. Nakai, 
 T. Vreven, K. Throssell, J. A. Montgomery, Jr., J. E. Peralta, 
 F. Ogliaro, M. J. Bearpark, J. J. Heyd, E. N. Brothers, K. N. Kudin, 
 V. N. Staroverov, T. A. Keith, R. Kobayashi, J. Normand, 
 K. Raghavachari, A. P. Rendell, J. C. Burant, S. S. Iyengar, 
 J. Tomasi, M. Cossi, J. M. Millam, M. Klene, C. Adamo, R. Cammi, 
 J. W. Ochterski, R. L. Martin, K. Morokuma, O. Farkas, 
 J. B. Foresman, and D. J. Fox, Gaussian, Inc., Wallingford CT, 2019.
 
 ******************************************
 Gaussian 16:  ES64L-G16RevC.01  3-Jul-2019
                29-Jul-2024 
 ******************************************
 %mem=60gb
 %nprocs=48
 Will use up to   48 processors via shared memory.
 %RWF=/scratch/gy60/or4187/rwf/gasphase_globalmin_actual_cudimer.rwf
 %NoSave
 %Chk=gasphase_globalmin_actual_cudimer.chk
 ----------------------------------------------------------------------
 #UM06/Def2TZVP OPT Freq=Noraman INT(grid=ultrafine) EmpiricalDispersio
 n=GD3 SCF=XQC Pop=NPA
 ----------------------------------------------------------------------
 1/18=20,19=15,26=4,38=1/1,3;
 2/9=110,12=2,17=6,18=5,40=1/2;
 3/5=44,7=101,11=2,25=1,30=1,71=1,74=-54,75=-5,116=2,124=31/1,2,3;
 4//1;
 5/5=2,8=3,13=1,38=5/2,8;
 6/7=2,8=2,9=2,10=2,28=1,40=-1/1,7;
 7//1,2,3,16;
 1/18=20,19=15,26=4/3(2);
 2/9=110/2;
 99//99;
 2/9=110/2;
 3/5=44,7=101,11=2,25=1,30=1,71=1,74=-54,75=-5,116=2,124=31/1,2,3;
 4/5=5,16=3,69=1/1;
 5/5=2,8=3,13=1,38=5/2,8;
 7//1,2,3,16;
 1/18=20,19=15,26=4/3(-5);
 2/9=110/2;
 6/7=2,8=2,9=2,10=2,19=2,28=1,40=-1/1,7;
 99/9=1/99;
 -----------------------------------------
 gasphase_globalmin_actual_cudimer.optfreq
 -----------------------------------------
 Symbolic Z-matrix:
 Charge =  1 Multiplicity = 2
 C                    -1.81698  -2.51296   0.22371 
 C                    -2.43441  -1.69811  -0.89105 
 N                    -1.47681  -0.6829   -1.38576 
 O                    -2.60783  -3.47057   0.66621 
 O                    -0.69071  -2.30699   0.67434 
 C                    -2.04424   0.69031  -1.48241 
 P                    -2.20997   1.40916   0.2115 
 O                    -1.9124    2.95448   0.16063 
 O                    -1.38513   0.58568   1.16621 
 O                    -3.80501   1.31573   0.42302 
 H                    -0.91628   3.18237   0.25378 
 Cu                    0.17005  -0.62568  -0.12817 
 H                    -2.17572  -3.95674   1.39727 
 H                    -1.13231  -0.95393  -2.30684 
 H                    -2.76268  -2.3736   -1.68817 
 H                    -3.33454  -1.21845  -0.49232 
 H                    -1.32694   1.3035   -2.0299 
 H                    -3.00635   0.69846  -2.00536 
 C                     2.8164   -1.90395  -0.45928 
 O                     3.96692  -2.49301  -0.77469 
 O                     1.7539   -2.14374  -1.00915 
 C                     3.00541  -0.87306   0.63831 
 N                     1.71407  -0.43809   1.214 
 C                     1.69686   1.00251   1.6034 
 P                     1.44645   2.01556   0.07196 
 O                     0.86588   0.98888  -0.94062 
 O                     0.65327   3.27102   0.33535 
 O                     2.95929   2.36341  -0.40487 
 H                     3.82451  -3.10707  -1.5221 
 H                     3.50441  -0.01306   0.17814 
 H                     3.68182  -1.26368   1.40539 
 H                     1.49094  -1.01137   2.02828 
 H                     2.60262   1.29303   2.14561 
 H                     0.823     1.16438   2.23724 
 H                    -4.1627    1.89172   1.12209 
 H                     3.09677   3.31404  -0.56118 
 

 GradGradGradGradGradGradGradGradGradGradGradGradGradGradGradGradGradGrad
 Berny optimization.
 Initialization pass.
                           ----------------------------
                           !    Initial Parameters    !
                           ! (Angstroms and Degrees)  !
 --------------------------                            --------------------------
 ! Name  Definition              Value          Derivative Info.                !
 --------------------------------------------------------------------------------
 ! R1    R(1,2)                  1.5126         estimate D2E/DX2                !
 ! R2    R(1,4)                  1.3184         estimate D2E/DX2                !
 ! R3    R(1,5)                  1.2304         estimate D2E/DX2                !
 ! R4    R(2,3)                  1.4807         estimate D2E/DX2                !
 ! R5    R(2,15)                 1.0952         estimate D2E/DX2                !
 ! R6    R(2,16)                 1.0951         estimate D2E/DX2                !
 ! R7    R(3,6)                  1.489          estimate D2E/DX2                !
 ! R8    R(3,12)                 2.0729         estimate D2E/DX2                !
 ! R9    R(3,14)                 1.0201         estimate D2E/DX2                !
 ! R10   R(4,13)                 0.9785         estimate D2E/DX2                !
 ! R11   R(5,12)                 2.0522         estimate D2E/DX2                !
 ! R12   R(6,7)                  1.8476         estimate D2E/DX2                !
 ! R13   R(6,17)                 1.091          estimate D2E/DX2                !
 ! R14   R(6,18)                 1.0951         estimate D2E/DX2                !
 ! R15   R(7,8)                  1.5745         estimate D2E/DX2                !
 ! R16   R(7,9)                  1.5066         estimate D2E/DX2                !
 ! R17   R(7,10)                 1.6117         estimate D2E/DX2                !
 ! R18   R(8,11)                 1.0261         estimate D2E/DX2                !
 ! R19   R(10,35)                0.9739         estimate D2E/DX2                !
 ! R20   R(12,23)                2.0544         estimate D2E/DX2                !
 ! R21   R(12,26)                1.9368         estimate D2E/DX2                !
 ! R22   R(19,20)                1.3305         estimate D2E/DX2                !
 ! R23   R(19,21)                1.2201         estimate D2E/DX2                !
 ! R24   R(19,22)                1.5176         estimate D2E/DX2                !
 ! R25   R(20,29)                0.9777         estimate D2E/DX2                !
 ! R26   R(22,23)                1.4792         estimate D2E/DX2                !
 ! R27   R(22,30)                1.0956         estimate D2E/DX2                !
 ! R28   R(22,31)                1.0948         estimate D2E/DX2                !
 ! R29   R(23,24)                1.4924         estimate D2E/DX2                !
 ! R30   R(23,32)                1.0205         estimate D2E/DX2                !
 ! R31   R(24,25)                1.8532         estimate D2E/DX2                !
 ! R32   R(24,33)                1.0949         estimate D2E/DX2                !
 ! R33   R(24,34)                1.0916         estimate D2E/DX2                !
 ! R34   R(25,26)                1.5545         estimate D2E/DX2                !
 ! R35   R(25,27)                1.5082         estimate D2E/DX2                !
 ! R36   R(25,28)                1.6239         estimate D2E/DX2                !
 ! R37   R(28,36)                0.9732         estimate D2E/DX2                !
 ! A1    A(2,1,4)              113.1901         estimate D2E/DX2                !
 ! A2    A(2,1,5)              123.5985         estimate D2E/DX2                !
 ! A3    A(4,1,5)              123.2114         estimate D2E/DX2                !
 ! A4    A(1,2,3)              110.586          estimate D2E/DX2                !
 ! A5    A(1,2,15)             109.0564         estimate D2E/DX2                !
 ! A6    A(1,2,16)             107.6456         estimate D2E/DX2                !
 ! A7    A(3,2,15)             111.9354         estimate D2E/DX2                !
 ! A8    A(3,2,16)             110.6661         estimate D2E/DX2                !
 ! A9    A(15,2,16)            106.7847         estimate D2E/DX2                !
 ! A10   A(2,3,6)              114.0515         estimate D2E/DX2                !
 ! A11   A(2,3,12)             109.2709         estimate D2E/DX2                !
 ! A12   A(2,3,14)             109.7508         estimate D2E/DX2                !
 ! A13   A(6,3,12)             108.4628         estimate D2E/DX2                !
 ! A14   A(6,3,14)             108.3691         estimate D2E/DX2                !
 ! A15   A(12,3,14)            106.6688         estimate D2E/DX2                !
 ! A16   A(1,4,13)             110.2874         estimate D2E/DX2                !
 ! A17   A(1,5,12)             112.2002         estimate D2E/DX2                !
 ! A18   A(3,6,7)              109.4811         estimate D2E/DX2                !
 ! A19   A(3,6,17)             107.4794         estimate D2E/DX2                !
 ! A20   A(3,6,18)             111.8807         estimate D2E/DX2                !
 ! A21   A(7,6,17)             107.4805         estimate D2E/DX2                !
 ! A22   A(7,6,18)             110.8626         estimate D2E/DX2                !
 ! A23   A(17,6,18)            109.5011         estimate D2E/DX2                !
 ! A24   A(6,7,8)              109.5899         estimate D2E/DX2                !
 ! A25   A(6,7,9)              108.6149         estimate D2E/DX2                !
 ! A26   A(6,7,10)             100.751          estimate D2E/DX2                !
 ! A27   A(8,7,9)              116.9642         estimate D2E/DX2                !
 ! A28   A(8,7,10)             104.3689         estimate D2E/DX2                !
 ! A29   A(9,7,10)             115.2749         estimate D2E/DX2                !
 ! A30   A(7,8,11)             113.4854         estimate D2E/DX2                !
 ! A31   A(7,10,35)            115.0505         estimate D2E/DX2                !
 ! A32   A(3,12,5)              83.189          estimate D2E/DX2                !
 ! A33   A(3,12,26)             93.0923         estimate D2E/DX2                !
 ! A34   A(5,12,23)             97.7332         estimate D2E/DX2                !
 ! A35   A(23,12,26)            85.8665         estimate D2E/DX2                !
 ! A36   A(20,19,21)           123.9988         estimate D2E/DX2                !
 ! A37   A(20,19,22)           111.3768         estimate D2E/DX2                !
 ! A38   A(21,19,22)           124.602          estimate D2E/DX2                !
 ! A39   A(19,20,29)           109.4704         estimate D2E/DX2                !
 ! A40   A(19,22,23)           111.869          estimate D2E/DX2                !
 ! A41   A(19,22,30)           106.6283         estimate D2E/DX2                !
 ! A42   A(19,22,31)           109.9578         estimate D2E/DX2                !
 ! A43   A(23,22,30)           109.284          estimate D2E/DX2                !
 ! A44   A(23,22,31)           111.8143         estimate D2E/DX2                !
 ! A45   A(30,22,31)           107.0351         estimate D2E/DX2                !
 ! A46   A(12,23,22)           112.0235         estimate D2E/DX2                !
 ! A47   A(12,23,24)           104.4742         estimate D2E/DX2                !
 ! A48   A(12,23,32)           107.7976         estimate D2E/DX2                !
 ! A49   A(22,23,24)           113.2941         estimate D2E/DX2                !
 ! A50   A(22,23,32)           109.646          estimate D2E/DX2                !
 ! A51   A(24,23,32)           109.3623         estimate D2E/DX2                !
 ! A52   A(23,24,25)           108.2774         estimate D2E/DX2                !
 ! A53   A(23,24,33)           112.0745         estimate D2E/DX2                !
 ! A54   A(23,24,34)           107.6906         estimate D2E/DX2                !
 ! A55   A(25,24,33)           112.0846         estimate D2E/DX2                !
 ! A56   A(25,24,34)           106.8942         estimate D2E/DX2                !
 ! A57   A(33,24,34)           109.5935         estimate D2E/DX2                !
 ! A58   A(24,25,26)           103.1631         estimate D2E/DX2                !
 ! A59   A(24,25,27)           112.4448         estimate D2E/DX2                !
 ! A60   A(24,25,28)           103.5247         estimate D2E/DX2                !
 ! A61   A(26,25,27)           117.8477         estimate D2E/DX2                !
 ! A62   A(26,25,28)           107.3457         estimate D2E/DX2                !
 ! A63   A(27,25,28)           111.279          estimate D2E/DX2                !
 ! A64   A(12,26,25)           114.2997         estimate D2E/DX2                !
 ! A65   A(25,28,36)           112.8317         estimate D2E/DX2                !
 ! A66   L(3,12,23,26,-1)      178.9587         estimate D2E/DX2                !
 ! A67   L(5,12,26,23,-1)      183.5997         estimate D2E/DX2                !
 ! A68   L(3,12,23,26,-2)      174.9461         estimate D2E/DX2                !
 ! A69   L(5,12,26,23,-2)      181.5125         estimate D2E/DX2                !
 ! D1    D(4,1,2,3)           -177.3861         estimate D2E/DX2                !
 ! D2    D(4,1,2,15)           -53.8873         estimate D2E/DX2                !
 ! D3    D(4,1,2,16)            61.6109         estimate D2E/DX2                !
 ! D4    D(5,1,2,3)              2.5682         estimate D2E/DX2                !
 ! D5    D(5,1,2,15)           126.0669         estimate D2E/DX2                !
 ! D6    D(5,1,2,16)          -118.4348         estimate D2E/DX2                !
 ! D7    D(2,1,4,13)          -178.7587         estimate D2E/DX2                !
 ! D8    D(5,1,4,13)             1.2868         estimate D2E/DX2                !
 ! D9    D(2,1,5,12)             5.6668         estimate D2E/DX2                !
 ! D10   D(4,1,5,12)          -174.3835         estimate D2E/DX2                !
 ! D11   D(1,2,3,6)           -130.6533         estimate D2E/DX2                !
 ! D12   D(1,2,3,12)            -9.0913         estimate D2E/DX2                !
 ! D13   D(1,2,3,14)           107.5493         estimate D2E/DX2                !
 ! D14   D(15,2,3,6)           107.5271         estimate D2E/DX2                !
 ! D15   D(15,2,3,12)         -130.9108         estimate D2E/DX2                !
 ! D16   D(15,2,3,14)          -14.2702         estimate D2E/DX2                !
 ! D17   D(16,2,3,6)           -11.4608         estimate D2E/DX2                !
 ! D18   D(16,2,3,12)          110.1013         estimate D2E/DX2                !
 ! D19   D(16,2,3,14)         -133.2581         estimate D2E/DX2                !
 ! D20   D(2,3,6,7)             74.2634         estimate D2E/DX2                !
 ! D21   D(2,3,6,17)          -169.2849         estimate D2E/DX2                !
 ! D22   D(2,3,6,18)           -49.045          estimate D2E/DX2                !
 ! D23   D(12,3,6,7)           -47.7443         estimate D2E/DX2                !
 ! D24   D(12,3,6,17)           68.7073         estimate D2E/DX2                !
 ! D25   D(12,3,6,18)         -171.0527         estimate D2E/DX2                !
 ! D26   D(14,3,6,7)          -163.1804         estimate D2E/DX2                !
 ! D27   D(14,3,6,17)          -46.7288         estimate D2E/DX2                !
 ! D28   D(14,3,6,18)           73.5111         estimate D2E/DX2                !
 ! D29   D(2,3,12,5)             9.4904         estimate D2E/DX2                !
 ! D30   D(2,3,12,26)         -169.3255         estimate D2E/DX2                !
 ! D31   D(6,3,12,5)           134.3737         estimate D2E/DX2                !
 ! D32   D(6,3,12,26)          -44.4421         estimate D2E/DX2                !
 ! D33   D(14,3,12,5)         -109.089          estimate D2E/DX2                !
 ! D34   D(14,3,12,26)          72.0951         estimate D2E/DX2                !
 ! D35   D(1,5,12,3)            -8.513          estimate D2E/DX2                !
 ! D36   D(1,5,12,23)          166.3789         estimate D2E/DX2                !
 ! D37   D(3,6,7,8)            144.5357         estimate D2E/DX2                !
 ! D38   D(3,6,7,9)             15.6526         estimate D2E/DX2                !
 ! D39   D(3,6,7,10)          -105.8498         estimate D2E/DX2                !
 ! D40   D(17,6,7,8)            28.0848         estimate D2E/DX2                !
 ! D41   D(17,6,7,9)          -100.7983         estimate D2E/DX2                !
 ! D42   D(17,6,7,10)          137.6992         estimate D2E/DX2                !
 ! D43   D(18,6,7,8)           -91.5563         estimate D2E/DX2                !
 ! D44   D(18,6,7,9)           139.5606         estimate D2E/DX2                !
 ! D45   D(18,6,7,10)           18.0581         estimate D2E/DX2                !
 ! D46   D(6,7,8,11)           -86.6128         estimate D2E/DX2                !
 ! D47   D(9,7,8,11)            37.5257         estimate D2E/DX2                !
 ! D48   D(10,7,8,11)          166.1958         estimate D2E/DX2                !
 ! D49   D(6,7,10,35)         -161.1325         estimate D2E/DX2                !
 ! D50   D(8,7,10,35)          -47.4958         estimate D2E/DX2                !
 ! D51   D(9,7,10,35)           82.1907         estimate D2E/DX2                !
 ! D52   D(5,12,23,22)         104.305          estimate D2E/DX2                !
 ! D53   D(5,12,23,24)        -132.6717         estimate D2E/DX2                !
 ! D54   D(5,12,23,32)         -16.4091         estimate D2E/DX2                !
 ! D55   D(26,12,23,22)        -77.2075         estimate D2E/DX2                !
 ! D56   D(26,12,23,24)         45.8158         estimate D2E/DX2                !
 ! D57   D(26,12,23,32)        162.0783         estimate D2E/DX2                !
 ! D58   D(3,12,26,25)         139.1046         estimate D2E/DX2                !
 ! D59   D(23,12,26,25)        -35.8415         estimate D2E/DX2                !
 ! D60   D(21,19,20,29)          2.0492         estimate D2E/DX2                !
 ! D61   D(22,19,20,29)       -176.299          estimate D2E/DX2                !
 ! D62   D(20,19,22,23)       -166.8617         estimate D2E/DX2                !
 ! D63   D(20,19,22,30)         73.7149         estimate D2E/DX2                !
 ! D64   D(20,19,22,31)        -41.9895         estimate D2E/DX2                !
 ! D65   D(21,19,22,23)         14.802          estimate D2E/DX2                !
 ! D66   D(21,19,22,30)       -104.6214         estimate D2E/DX2                !
 ! D67   D(21,19,22,31)        139.6742         estimate D2E/DX2                !
 ! D68   D(19,22,23,12)        -26.8158         estimate D2E/DX2                !
 ! D69   D(19,22,23,24)       -144.7012         estimate D2E/DX2                !
 ! D70   D(19,22,23,32)         92.8208         estimate D2E/DX2                !
 ! D71   D(30,22,23,12)         91.0311         estimate D2E/DX2                !
 ! D72   D(30,22,23,24)        -26.8542         estimate D2E/DX2                !
 ! D73   D(30,22,23,32)       -149.3322         estimate D2E/DX2                !
 ! D74   D(31,22,23,12)       -150.6516         estimate D2E/DX2                !
 ! D75   D(31,22,23,24)         91.463          estimate D2E/DX2                !
 ! D76   D(31,22,23,32)        -31.015          estimate D2E/DX2                !
 ! D77   D(12,23,24,25)        -43.2283         estimate D2E/DX2                !
 ! D78   D(12,23,24,33)       -167.368          estimate D2E/DX2                !
 ! D79   D(12,23,24,34)         72.0226         estimate D2E/DX2                !
 ! D80   D(22,23,24,25)         78.9659         estimate D2E/DX2                !
 ! D81   D(22,23,24,33)        -45.1739         estimate D2E/DX2                !
 ! D82   D(22,23,24,34)       -165.7833         estimate D2E/DX2                !
 ! D83   D(32,23,24,25)       -158.3987         estimate D2E/DX2                !
 ! D84   D(32,23,24,33)         77.4615         estimate D2E/DX2                !
 ! D85   D(32,23,24,34)        -43.1479         estimate D2E/DX2                !
 ! D86   D(23,24,25,26)         18.9272         estimate D2E/DX2                !
 ! D87   D(23,24,25,27)        146.9267         estimate D2E/DX2                !
 ! D88   D(23,24,25,28)        -92.8604         estimate D2E/DX2                !
 ! D89   D(33,24,25,26)        143.0609         estimate D2E/DX2                !
 ! D90   D(33,24,25,27)        -88.9396         estimate D2E/DX2                !
 ! D91   D(33,24,25,28)         31.2733         estimate D2E/DX2                !
 ! D92   D(34,24,25,26)        -96.8432         estimate D2E/DX2                !
 ! D93   D(34,24,25,27)         31.1563         estimate D2E/DX2                !
 ! D94   D(34,24,25,28)        151.3692         estimate D2E/DX2                !
 ! D95   D(24,25,26,12)         17.2514         estimate D2E/DX2                !
 ! D96   D(27,25,26,12)       -107.2902         estimate D2E/DX2                !
 ! D97   D(28,25,26,12)        126.1966         estimate D2E/DX2                !
 ! D98   D(24,25,28,36)       -128.4244         estimate D2E/DX2                !
 ! D99   D(26,25,28,36)        122.8821         estimate D2E/DX2                !
 ! D100  D(27,25,28,36)         -7.4208         estimate D2E/DX2                !
 --------------------------------------------------------------------------------
 Trust Radius=3.00D-01 FncErr=1.00D-07 GrdErr=1.00D-06 EigMax=2.50D+02 EigMin=1.00D-04
 Number of steps in this run=    216 maximum allowed number of steps=    216.
 GradGradGradGradGradGradGradGradGradGradGradGradGradGradGradGradGradGrad

                          Input orientation:                          
 ---------------------------------------------------------------------
 Center     Atomic      Atomic             Coordinates (Angstroms)
 Number     Number       Type             X           Y           Z
 ---------------------------------------------------------------------
      1          6           0       -1.816980   -2.512964    0.223713
      2          6           0       -2.434407   -1.698111   -0.891052
      3          7           0       -1.476806   -0.682901   -1.385764
      4          8           0       -2.607829   -3.470568    0.666209
      5          8           0       -0.690708   -2.306988    0.674344
      6          6           0       -2.044244    0.690313   -1.482415
      7         15           0       -2.209967    1.409156    0.211497
      8          8           0       -1.912398    2.954479    0.160630
      9          8           0       -1.385128    0.585677    1.166207
     10          8           0       -3.805007    1.315733    0.423018
     11          1           0       -0.916278    3.182375    0.253776
     12         29           0        0.170052   -0.625683   -0.128170
     13          1           0       -2.175725   -3.956742    1.397273
     14          1           0       -1.132314   -0.953933   -2.306838
     15          1           0       -2.762685   -2.373599   -1.688174
     16          1           0       -3.334539   -1.218451   -0.492318
     17          1           0       -1.326939    1.303501   -2.029896
     18          1           0       -3.006345    0.698457   -2.005359
     19          6           0        2.816398   -1.903954   -0.459285
     20          8           0        3.966924   -2.493011   -0.774694
     21          8           0        1.753902   -2.143738   -1.009146
     22          6           0        3.005407   -0.873056    0.638307
     23          7           0        1.714067   -0.438086    1.213996
     24          6           0        1.696862    1.002509    1.603397
     25         15           0        1.446446    2.015562    0.071963
     26          8           0        0.865878    0.988884   -0.940624
     27          8           0        0.653274    3.271019    0.335355
     28          8           0        2.959290    2.363411   -0.404870
     29          1           0        3.824507   -3.107071   -1.522105
     30          1           0        3.504413   -0.013062    0.178138
     31          1           0        3.681820   -1.263678    1.405391
     32          1           0        1.490935   -1.011370    2.028278
     33          1           0        2.602616    1.293032    2.145610
     34          1           0        0.823003    1.164380    2.237236
     35          1           0       -4.162698    1.891717    1.122095
     36          1           0        3.096773    3.314040   -0.561181
 ---------------------------------------------------------------------
                    Distance matrix (angstroms):
                    1          2          3          4          5
     1  C    0.000000
     2  C    1.512582   0.000000
     3  N    2.460744   1.480673   0.000000
     4  O    1.318428   2.365744   3.641551   0.000000
     5  O    1.230440   2.421092   2.738550   2.242619   0.000000
     6  C    3.636414   2.491287   1.488975   4.716688   3.932872
     7  P    3.941778   3.304709   2.732302   4.916988   4.041300
     8  O    5.468640   4.798451   3.976382   6.482320   5.425815
     9  O    3.267471   3.247921   2.851360   4.265926   3.015238
    10  O    4.318668   3.562103   3.561846   4.939742   4.783945
    11  H    5.766199   5.237794   4.235876   6.876998   5.510069
    12  Cu   2.762960   2.918099   2.072911   4.054755   2.052249
    13  H    1.894845   3.225641   4.353368   0.978537   2.334435
    14  H    3.050087   2.062449   1.020054   4.165286   3.303517
    15  H    2.137544   1.095196   2.145553   2.602007   3.143091
    16  H    2.119304   1.095126   2.129844   2.634829   3.088018
    17  H    4.459181   3.396046   2.093600   5.630400   4.555583
    18  H    4.086145   2.704133   2.152101   4.967581   4.644964
    19  C    4.722876   5.272546   4.558611   5.757018   3.707741
    20  O    5.869476   6.451546   5.769237   6.801411   4.881378
    21  O    3.795716   4.213604   3.565579   4.857158   2.972694
    22  C    5.110440   5.710624   4.921712   6.185165   3.964685
    23  N    4.213558   4.819619   4.123149   5.307995   3.093051
    24  C    5.158406   5.530190   4.674169   6.278304   4.185260
    25  P    5.583952   5.457086   4.236989   6.847474   4.859499
    26  O    4.562494   4.256088   2.912248   5.876672   3.986711
    27  O    6.290396   5.977467   4.809676   7.496217   5.747640
    28  O    6.854698   6.769365   5.470020   8.134822   6.024932
    29  H    5.935252   6.446503   5.830875   6.804101   5.084456
    30  H    5.879525   6.265154   5.263746   7.039323   4.807012
    31  H    5.761413   6.547566   5.894003   6.706448   4.554331
    32  H    4.056296   4.939880   4.535534   4.970187   2.875992
    33  H    6.141019   6.598474   5.746007   7.213131   5.096151
    34  H    4.954457   5.347033   4.672013   5.976745   4.096871
    35  H    5.070572   4.463924   4.486874   5.601746   5.466656
    36  H    7.662571   7.471575   6.129690   8.948737   6.889666
                    6          7          8          9         10
     6  C    0.000000
     7  P    1.847575   0.000000
     8  O    2.800612   1.574534   0.000000
     9  O    2.731406   1.506635   2.626866   0.000000
    10  O    2.668727   1.611714   2.517202   2.634601   0.000000
    11  H    3.239913   2.195386   1.026093   2.791987   3.443508
    12  Cu   2.910143   3.149672   4.151814   2.358260   4.458026
    13  H    5.468547   5.495462   7.025924   4.616492   5.603813
    14  H    2.053007   3.617670   4.687496   3.807408   4.443735
    15  H    3.153737   4.268898   5.703463   4.336182   4.376613
    16  H    2.507695   2.943525   4.456700   3.131419   2.735190
    17  H    1.090991   2.411378   2.804799   3.276238   3.486797
    18  H    1.095069   2.460440   3.313287   3.563691   2.629810
    19  C    5.603825   6.057308   6.808096   5.147165   7.415378
    20  O    6.838754   7.372480   8.069474   6.472239   8.737502
    21  O    4.762535   5.461253   6.387640   4.694185   6.702275
    22  C    5.695661   5.708833   6.250040   4.656541   7.156736
    23  N    4.761178   4.451443   5.076448   3.264258   5.844801
    24  C    4.859585   4.167260   4.349542   3.140628   5.635775
    25  P    4.044414   3.708982   3.488733   3.355555   5.309497
    26  O    2.975146   3.311319   3.577030   3.109396   4.876835
    27  O    4.152220   3.417604   2.591022   3.472242   4.868993
    28  O    5.384766   5.292610   4.939888   4.950009   6.894834
    29  H    6.990275   7.734116   8.513875   6.928471   9.030735
    30  H    5.834361   5.888799   6.176443   5.024180   7.433255
    31  H    6.704126   6.578949   7.116007   5.399193   7.979410
    32  H    5.264806   4.780828   5.549662   3.400804   6.003271
    33  H    5.926140   5.187989   5.204411   4.166736   6.635169
    34  H    4.720344   3.655467   3.872875   2.521477   4.973205
    35  H    3.565766   2.207989   2.667907   3.069622   0.973864
    36  H    5.844884   5.690967   5.073666   5.524064   7.252341
                   11         12         13         14         15
    11  H    0.000000
    12  Cu   3.978353   0.000000
    13  H    7.338990   4.350356   0.000000
    14  H    4.869544   2.559395   4.881189   0.000000
    15  H    6.168407   3.753635   3.517222   2.248623   0.000000
    16  H    5.076604   3.572974   3.523016   2.865702   1.758254
    17  H    2.985627   3.095044   6.335304   2.282671   3.962223
    18  H    3.954987   3.920037   5.825694   2.516600   3.097985
    19  C    6.349178   2.957492   5.708067   4.461874   5.732094
    20  O    7.557342   4.280320   6.677730   5.542423   6.792373
    21  O    6.090345   2.364147   4.951747   3.380811   4.573124
    22  C    5.654555   2.947527   6.076946   5.079484   6.398048
    23  N    4.576950   2.054406   5.248334   4.556782   5.675395
    24  C    3.660845   2.824974   6.295521   5.207863   6.490000
    25  P    2.641396   2.940307   7.109499   4.596368   6.330845
    26  O    3.068236   1.936771   6.259100   3.103845   5.003159
    27  O    1.574168   3.953814   7.833992   5.293367   6.901099
    28  O    4.015537   4.097693   8.340289   5.600310   7.538377
    29  H    8.073780   4.631996   6.726625   5.460942   6.629982
    30  H    5.455185   3.403982   7.021600   5.344117   6.952106
    31  H    6.498931   3.884760   6.446975   6.087074   7.234204
    32  H    5.150828   2.558076   4.745290   5.067343   5.810419
    33  H    4.419419   3.843033   7.138114   6.230799   7.545101
    34  H    3.321372   3.037402   5.993646   5.381369   6.386181
    35  H    3.599864   5.164609   6.182901   5.388742   5.296280
    36  H    4.097081   4.926927   9.192336   6.256844   8.243337
                   16         17         18         19         20
    16  H    0.000000
    17  H    3.571393   0.000000
    18  H    2.464050   1.785241   0.000000
    19  C    6.189106   5.470084   6.562562   0.000000
    20  O    7.417250   6.634306   7.767013   1.330482   0.000000
    21  O    5.197643   4.734656   5.632980   1.220140   2.252649
    22  C    6.449227   5.534069   6.752761   1.517623   2.354855
    23  N    5.385991   4.775320   5.825656   2.482695   3.640463
    24  C    5.885548   4.736537   5.935968   3.735712   4.798662
    25  P    5.799575   3.551972   5.086982   4.185880   5.234202
    26  O    4.766216   2.468591   4.026428   3.522034   4.665577
    27  O    6.061604   3.658795   5.048745   5.664883   6.740663
    28  O    7.242214   4.704878   6.397065   4.270103   4.973623
    29  H    7.475245   6.800617   7.834292   1.895617   0.977739
    30  H    6.976657   5.472725   6.903905   2.110722   2.696656
    31  H    7.268606   6.593881   7.759816   2.153120   2.518991
    32  H    5.448072   5.455989   6.278477   2.956607   4.022739
    33  H    6.965344   5.733791   7.003179   4.129394   4.972287
    34  H    5.514844   4.780170   5.734162   4.545274   5.686165
    35  H    3.600739   4.280488   3.541467   8.100349   9.429443
    36  H    7.868291   5.076280   6.795218   5.226514   5.875763
                   21         22         23         24         25
    21  O    0.000000
    22  C    2.427962   0.000000
    23  N    2.802356   1.479249   0.000000
    24  C    4.089927   2.482224   1.492394   0.000000
    25  P    4.308492   3.330948   2.719604   1.853179   0.000000
    26  O    3.256778   3.246140   2.719937   2.676334   1.554496
    27  O    5.686709   4.774691   3.956609   2.800562   1.508201
    28  O    4.704519   3.400744   3.466942   2.734760   1.623904
    29  H    2.340629   3.213896   4.366199   5.584289   5.868355
    30  H    3.002286   1.095606   2.111632   2.515947   2.891680
    31  H    3.212688   1.094778   2.142496   3.019084   4.186686
    32  H    3.252285   2.060285   1.020538   2.068487   3.604367
    33  H    4.741750   2.669484   2.157358   1.094893   2.481691
    34  H    4.727496   3.386829   2.099741   1.091597   2.408651
    35  H    7.472164   7.698035   6.322404   5.946157   5.707943
    36  H    5.638379   4.356477   4.375109   3.462416   2.193285
                   26         27         28         29         30
    26  O    0.000000
    27  O    2.623254   0.000000
    28  O    2.561001   2.586387   0.000000
    29  H    5.086104   7.361176   5.650043   0.000000
    30  H    3.036016   4.351885   2.506926   3.544881   0.000000
    31  H    4.302017   5.557027   4.117628   3.462468   1.761154
    32  H    3.634019   4.680441   4.411963   4.737377   2.910967
    33  H    3.554379   3.315026   2.788884   5.857137   2.527858
    34  H    3.182992   2.843218   3.603071   6.433270   3.579974
    35  H    5.509673   5.070998   7.299097   9.786477   7.956371
    36  H    3.244568   2.603136   0.973156   6.533272   3.432546
                   31         32         33         34         35
    31  H    0.000000
    32  H    2.291642   0.000000
    33  H    2.872172   2.561224   0.000000
    34  H    3.841909   2.285538   1.786608   0.000000
    35  H    8.460097   6.419708   6.868441   5.160404   0.000000
    36  H    5.016492   5.290859   3.413999   4.197882   7.586590
                   36
    36  H    0.000000
 Stoichiometry    C6H15CuN2O10P2(1+,2)
 Framework group  C1[X(C6H15CuN2O10P2)]
 Deg. of freedom   102
 Full point group                 C1      NOp   1
 Largest Abelian subgroup         C1      NOp   1
 Largest concise Abelian subgroup C1      NOp   1
                         Standard orientation:                         
 ---------------------------------------------------------------------
 Center     Atomic      Atomic             Coordinates (Angstroms)
 Number     Number       Type             X           Y           Z
 ---------------------------------------------------------------------
      1          6           0        1.386340    2.766782    0.368510
      2          6           0        2.107832    2.135265   -0.801335
      3          7           0        1.321199    1.007625   -1.350904
      4          8           0        2.017012    3.813289    0.863817
      5          8           0        0.318384    2.349853    0.815301
      6          6           0        2.105194   -0.244064   -1.539777
      7         15           0        2.419997   -1.027807    0.103446
      8          8           0        2.380231   -2.595025   -0.042859
      9          8           0        1.489438   -0.412370    1.115990
     10          8           0        3.981638   -0.684510    0.306049
     11          1           0        1.437288   -2.990087    0.044613
     12         29           0       -0.268962    0.601472   -0.084653
     13          1           0        1.524984    4.175483    1.628184
     14          1           0        0.918920    1.273682   -2.249734
     15          1           0        2.304751    2.903307   -1.556840
     16          1           0        3.082280    1.787891   -0.442051
     17          1           0        1.488247   -0.932958   -2.118623
     18          1           0        3.045138   -0.060664   -2.070858
     19          6           0       -3.095708    1.441428   -0.309904
     20          8           0       -4.333487    1.849892   -0.576816
     21          8           0       -2.098143    1.887140   -0.852993
     22          6           0       -3.090880    0.328253    0.721600
     23          7           0       -1.734575    0.078857    1.256777
     24          6           0       -1.472635   -1.360066    1.553643
     25         15           0       -1.088500   -2.221980   -0.041292
     26          8           0       -0.704851   -1.053282   -0.991775
     27          8           0       -0.094310   -3.342394    0.134578
     28          8           0       -2.532310   -2.785846   -0.525577
     29          1           0       -4.308763    2.523633   -1.284937
     30          1           0       -3.450185   -0.572741    0.212224
     31          1           0       -3.807384    0.553713    1.518047
     32          1           0       -1.593190    0.630267    2.103804
     33          1           0       -2.307419   -1.829280    2.084458
     34          1           0       -0.571899   -1.413389    2.167985
     35          1           0        4.442875   -1.234953    0.963836
     36          1           0       -2.514264   -3.734743   -0.740753
 ---------------------------------------------------------------------
 Rotational constants (GHZ):           0.3157418           0.2582876           0.1644626
 Standard basis: def2TZVP (5D, 7F)
 There are   874 symmetry adapted cartesian basis functions of A   symmetry.
 There are   767 symmetry adapted basis functions of A   symmetry.
   767 basis functions,  1278 primitive gaussians,   874 cartesian basis functions
   102 alpha electrons      101 beta electrons
       nuclear repulsion energy      3131.7486041491 Hartrees.
 NAtoms=   36 NActive=   36 NUniq=   36 SFac= 1.00D+00 NAtFMM=   60 NAOKFM=F Big=F
 Integral buffers will be    131072 words long.
 Raffenetti 2 integral format.
 Two-electron integral symmetry is turned on.
 Nuclear repulsion after empirical dispersion term =     3131.7397032034 Hartrees.
 One-electron integrals computed using PRISM.
   1 Symmetry operations used in ECPInt.
 ECPInt:  NShTT=   44850 NPrTT=  146642 LenC2=   39309 LenP2D=   88138.
 LDataN:  DoStor=T MaxTD1= 6 Len=  172
 NBasis=   767 RedAO= T EigKep=  1.80D-04  NBF=   767
 NBsUse=   767 1.00D-06 EigRej= -1.00D+00 NBFU=   767
 ExpMin= 3.88D-02 ExpMax= 3.78D+05 ExpMxC= 3.65D+03 IAcc=3 IRadAn=         5 AccDes= 0.00D+00
 Harris functional with IExCor= 1009 and IRadAn=       5 diagonalized for initial guess.
 HarFok:  IExCor= 1009 AccDes= 0.00D+00 IRadAn=         5 IDoV= 1 UseB2=F ITyADJ=14
 ICtDFT=  3500011 ScaDFX=  1.000000  1.000000  1.000000  1.000000
 FoFCou: FMM=F IPFlag=           0 FMFlag=      100000 FMFlg1=           0
         NFxFlg=           0 DoJE=T BraDBF=F KetDBF=T FulRan=T
         wScrn=  0.000000 ICntrl=       500 IOpCl=  0 I1Cent=   200000004 NGrid=           0
         NMat0=    1 NMatS0=      1 NMatT0=    0 NMatD0=    1 NMtDS0=    0 NMtDT0=    0
 Petite list used in FoFCou.
 Initial guess <Sx>= 0.0000 <Sy>= 0.0000 <Sz>= 0.5000 <S**2>= 0.7500 S= 0.5000
 Requested convergence on RMS density matrix=1.00D-08 within  32 cycles.
 Requested convergence on MAX density matrix=1.00D-06.
 Requested convergence on             energy=1.00D-06.
 No special actions if energy rises.
 Restarting incremental Fock formation.
 SCF Done:  E(UM06) =  -3422.61573732     A.U. after   23 cycles
            NFock= 23  Conv=0.44D-08     -V/T= 2.0025
 <Sx>= 0.0000 <Sy>= 0.0000 <Sz>= 0.5000 <S**2>= 0.7525 S= 0.5013
 <L.S>= 0.000000000000E+00
 Annihilation of the first spin contaminant:
 S**2 before annihilation     0.7525,   after     0.7500
 QCSCF skips out because SCF is already converged.

 **********************************************************************

            Population analysis using the SCF Density.

 **********************************************************************

 Orbital symmetries:
 Alpha Orbitals:
       Occupied  (A) (A) (A) (A) (A) (A) (A) (A) (A) (A) (A) (A)
                 (A) (A) (A) (A) (A) (A) (A) (A) (A) (A) (A) (A)
                 (A) (A) (A) (A) (A) (A) (A) (A) (A) (A) (A) (A)
                 (A) (A) (A) (A) (A) (A) (A) (A) (A) (A) (A) (A)
                 (A) (A) (A) (A) (A) (A) (A) (A) (A) (A) (A) (A)
                 (A) (A) (A) (A) (A) (A) (A) (A) (A) (A) (A) (A)
                 (A) (A) (A) (A) (A) (A) (A) (A) (A) (A) (A) (A)
                 (A) (A) (A) (A) (A) (A) (A) (A) (A) (A) (A) (A)
                 (A) (A) (A) (A) (A) (A)
       Virtual   (A) (A) (A) (A) (A) (A) (A) (A) (A) (A) (A) (A)
                 (A) (A) (A) (A) (A) (A) (A) (A) (A) (A) (A) (A)
                 (A) (A) (A) (A) (A) (A) (A) (A) (A) (A) (A) (A)
                 (A) (A) (A) (A) (A) (A) (A) (A) (A) (A) (A) (A)
                 (A) (A) (A) (A) (A) (A) (A) (A) (A) (A) (A) (A)
                 (A) (A) (A) (A) (A) (A) (A) (A) (A) (A) (A) (A)
                 (A) (A) (A) (A) (A) (A) (A) (A) (A) (A) (A) (A)
                 (A) (A) (A) (A) (A) (A) (A) (A) (A) (A) (A) (A)
                 (A) (A) (A) (A) (A) (A) (A) (A) (A) (A) (A) (A)
                 (A) (A) (A) (A) (A) (A) (A) (A) (A) (A) (A) (A)
                 (A) (A) (A) (A) (A) (A) (A) (A) (A) (A) (A) (A)
                 (A) (A) (A) (A) (A) (A) (A) (A) (A) (A) (A) (A)
                 (A) (A) (A) (A) (A) (A) (A) (A) (A) (A) (A) (A)
                 (A) (A) (A) (A) (A) (A) (A) (A) (A) (A) (A) (A)
                 (A) (A) (A) (A) (A) (A) (A) (A) (A) (A) (A) (A)
                 (A) (A) (A) (A) (A) (A) (A) (A) (A) (A) (A) (A)
                 (A) (A) (A) (A) (A) (A) (A) (A) (A) (A) (A) (A)
                 (A) (A) (A) (A) (A) (A) (A) (A) (A) (A) (A) (A)
                 (A) (A) (A) (A) (A) (A) (A) (A) (A) (A) (A) (A)
                 (A) (A) (A) (A) (A) (A) (A) (A) (A) (A) (A) (A)
                 (A) (A) (A) (A) (A) (A) (A) (A) (A) (A) (A) (A)
                 (A) (A) (A) (A) (A) (A) (A) (A) (A) (A) (A) (A)
                 (A) (A) (A) (A) (A) (A) (A) (A) (A) (A) (A) (A)
                 (A) (A) (A) (A) (A) (A) (A) (A) (A) (A) (A) (A)
                 (A) (A) (A) (A) (A) (A) (A) (A) (A) (A) (A) (A)
                 (A) (A) (A) (A) (A) (A) (A) (A) (A) (A) (A) (A)
                 (A) (A) (A) (A) (A) (A) (A) (A) (A) (A) (A) (A)
                 (A) (A) (A) (A) (A) (A) (A) (A) (A) (A) (A) (A)
                 (A) (A) (A) (A) (A) (A) (A) (A) (A) (A) (A) (A)
                 (A) (A) (A) (A) (A) (A) (A) (A) (A) (A) (A) (A)
                 (A) (A) (A) (A) (A) (A) (A) (A) (A) (A) (A) (A)
                 (A) (A) (A) (A) (A) (A) (A) (A) (A) (A) (A) (A)
                 (A) (A) (A) (A) (A) (A) (A) (A) (A) (A) (A) (A)
                 (A) (A) (A) (A) (A) (A) (A) (A) (A) (A) (A) (A)
                 (A) (A) (A) (A) (A) (A) (A) (A) (A) (A) (A) (A)
                 (A) (A) (A) (A) (A) (A) (A) (A) (A) (A) (A) (A)
                 (A) (A) (A) (A) (A) (A) (A) (A) (A) (A) (A) (A)
                 (A) (A) (A) (A) (A) (A) (A) (A) (A) (A) (A) (A)
                 (A) (A) (A) (A) (A) (A) (A) (A) (A) (A) (A) (A)
                 (A) (A) (A) (A) (A) (A) (A) (A) (A) (A) (A) (A)
                 (A) (A) (A) (A) (A) (A) (A) (A) (A) (A) (A) (A)
                 (A) (A) (A) (A) (A) (A) (A) (A) (A) (A) (A) (A)
                 (A) (A) (A) (A) (A) (A) (A) (A) (A) (A) (A) (A)
                 (A) (A) (A) (A) (A) (A) (A) (A) (A) (A) (A) (A)
                 (A) (A) (A) (A) (A) (A) (A) (A) (A) (A) (A) (A)
                 (A) (A) (A) (A) (A) (A) (A) (A) (A) (A) (A) (A)
                 (A) (A) (A) (A) (A) (A) (A) (A) (A) (A) (A) (A)
                 (A) (A) (A) (A) (A) (A) (A) (A) (A) (A) (A) (A)
                 (A) (A) (A) (A) (A) (A) (A) (A) (A) (A) (A) (A)
                 (A) (A) (A) (A) (A) (A) (A) (A) (A) (A) (A) (A)
                 (A) (A) (A) (A) (A) (A) (A) (A) (A) (A) (A) (A)
                 (A) (A) (A) (A) (A) (A) (A) (A) (A) (A) (A) (A)
                 (A) (A) (A) (A) (A) (A) (A) (A) (A) (A) (A) (A)
                 (A) (A) (A) (A) (A) (A) (A) (A) (A) (A) (A) (A)
                 (A) (A) (A) (A) (A) (A) (A) (A) (A) (A) (A) (A)
                 (A) (A) (A) (A) (A)
 Beta  Orbitals:
       Occupied  (A) (A) (A) (A) (A) (A) (A) (A) (A) (A) (A) (A)
                 (A) (A) (A) (A) (A) (A) (A) (A) (A) (A) (A) (A)
                 (A) (A) (A) (A) (A) (A) (A) (A) (A) (A) (A) (A)
                 (A) (A) (A) (A) (A) (A) (A) (A) (A) (A) (A) (A)
                 (A) (A) (A) (A) (A) (A) (A) (A) (A) (A) (A) (A)
                 (A) (A) (A) (A) (A) (A) (A) (A) (A) (A) (A) (A)
                 (A) (A) (A) (A) (A) (A) (A) (A) (A) (A) (A) (A)
                 (A) (A) (A) (A) (A) (A) (A) (A) (A) (A) (A) (A)
                 (A) (A) (A) (A) (A)
       Virtual   (A) (A) (A) (A) (A) (A) (A) (A) (A) (A) (A) (A)
                 (A) (A) (A) (A) (A) (A) (A) (A) (A) (A) (A) (A)
                 (A) (A) (A) (A) (A) (A) (A) (A) (A) (A) (A) (A)
                 (A) (A) (A) (A) (A) (A) (A) (A) (A) (A) (A) (A)
                 (A) (A) (A) (A) (A) (A) (A) (A) (A) (A) (A) (A)
                 (A) (A) (A) (A) (A) (A) (A) (A) (A) (A) (A) (A)
                 (A) (A) (A) (A) (A) (A) (A) (A) (A) (A) (A) (A)
                 (A) (A) (A) (A) (A) (A) (A) (A) (A) (A) (A) (A)
                 (A) (A) (A) (A) (A) (A) (A) (A) (A) (A) (A) (A)
                 (A) (A) (A) (A) (A) (A) (A) (A) (A) (A) (A) (A)
                 (A) (A) (A) (A) (A) (A) (A) (A) (A) (A) (A) (A)
                 (A) (A) (A) (A) (A) (A) (A) (A) (A) (A) (A) (A)
                 (A) (A) (A) (A) (A) (A) (A) (A) (A) (A) (A) (A)
                 (A) (A) (A) (A) (A) (A) (A) (A) (A) (A) (A) (A)
                 (A) (A) (A) (A) (A) (A) (A) (A) (A) (A) (A) (A)
                 (A) (A) (A) (A) (A) (A) (A) (A) (A) (A) (A) (A)
                 (A) (A) (A) (A) (A) (A) (A) (A) (A) (A) (A) (A)
                 (A) (A) (A) (A) (A) (A) (A) (A) (A) (A) (A) (A)
                 (A) (A) (A) (A) (A) (A) (A) (A) (A) (A) (A) (A)
                 (A) (A) (A) (A) (A) (A) (A) (A) (A) (A) (A) (A)
                 (A) (A) (A) (A) (A) (A) (A) (A) (A) (A) (A) (A)
                 (A) (A) (A) (A) (A) (A) (A) (A) (A) (A) (A) (A)
                 (A) (A) (A) (A) (A) (A) (A) (A) (A) (A) (A) (A)
                 (A) (A) (A) (A) (A) (A) (A) (A) (A) (A) (A) (A)
                 (A) (A) (A) (A) (A) (A) (A) (A) (A) (A) (A) (A)
                 (A) (A) (A) (A) (A) (A) (A) (A) (A) (A) (A) (A)
                 (A) (A) (A) (A) (A) (A) (A) (A) (A) (A) (A) (A)
                 (A) (A) (A) (A) (A) (A) (A) (A) (A) (A) (A) (A)
                 (A) (A) (A) (A) (A) (A) (A) (A) (A) (A) (A) (A)
                 (A) (A) (A) (A) (A) (A) (A) (A) (A) (A) (A) (A)
                 (A) (A) (A) (A) (A) (A) (A) (A) (A) (A) (A) (A)
                 (A) (A) (A) (A) (A) (A) (A) (A) (A) (A) (A) (A)
                 (A) (A) (A) (A) (A) (A) (A) (A) (A) (A) (A) (A)
                 (A) (A) (A) (A) (A) (A) (A) (A) (A) (A) (A) (A)
                 (A) (A) (A) (A) (A) (A) (A) (A) (A) (A) (A) (A)
                 (A) (A) (A) (A) (A) (A) (A) (A) (A) (A) (A) (A)
                 (A) (A) (A) (A) (A) (A) (A) (A) (A) (A) (A) (A)
                 (A) (A) (A) (A) (A) (A) (A) (A) (A) (A) (A) (A)
                 (A) (A) (A) (A) (A) (A) (A) (A) (A) (A) (A) (A)
                 (A) (A) (A) (A) (A) (A) (A) (A) (A) (A) (A) (A)
                 (A) (A) (A) (A) (A) (A) (A) (A) (A) (A) (A) (A)
                 (A) (A) (A) (A) (A) (A) (A) (A) (A) (A) (A) (A)
                 (A) (A) (A) (A) (A) (A) (A) (A) (A) (A) (A) (A)
                 (A) (A) (A) (A) (A) (A) (A) (A) (A) (A) (A) (A)
                 (A) (A) (A) (A) (A) (A) (A) (A) (A) (A) (A) (A)
                 (A) (A) (A) (A) (A) (A) (A) (A) (A) (A) (A) (A)
                 (A) (A) (A) (A) (A) (A) (A) (A) (A) (A) (A) (A)
                 (A) (A) (A) (A) (A) (A) (A) (A) (A) (A) (A) (A)
                 (A) (A) (A) (A) (A) (A) (A) (A) (A) (A) (A) (A)
                 (A) (A) (A) (A) (A) (A) (A) (A) (A) (A) (A) (A)
                 (A) (A) (A) (A) (A) (A) (A) (A) (A) (A) (A) (A)
                 (A) (A) (A) (A) (A) (A) (A) (A) (A) (A) (A) (A)
                 (A) (A) (A) (A) (A) (A) (A) (A) (A) (A) (A) (A)
                 (A) (A) (A) (A) (A) (A) (A) (A) (A) (A) (A) (A)
                 (A) (A) (A) (A) (A) (A) (A) (A) (A) (A) (A) (A)
                 (A) (A) (A) (A) (A) (A)
 The electronic state is 2-A.
 Alpha  occ. eigenvalues -- -323.50995 -77.46360 -77.44107 -39.28879 -34.41134
 Alpha  occ. eigenvalues --  -34.40894 -34.38157 -19.42254 -19.39737 -19.38533
 Alpha  occ. eigenvalues --  -19.36330 -19.35032 -19.34405 -19.33723 -19.31139
 Alpha  occ. eigenvalues --  -19.30042 -19.28138 -14.59025 -14.58205 -10.55159
 Alpha  occ. eigenvalues --  -10.52480 -10.44704 -10.42982 -10.41575 -10.40277
 Alpha  occ. eigenvalues --   -6.86808  -6.84557  -4.98904  -4.98720  -4.98611
 Alpha  occ. eigenvalues --   -4.96641  -4.96497  -4.96352  -4.64814  -3.12177
 Alpha  occ. eigenvalues --   -3.11776  -3.06769  -1.30436  -1.27521  -1.22037
 Alpha  occ. eigenvalues --   -1.21535  -1.19155  -1.18971  -1.16268  -1.12960
 Alpha  occ. eigenvalues --   -1.11901  -1.10314  -1.09611  -1.08825  -0.92626
 Alpha  occ. eigenvalues --   -0.90739  -0.85152  -0.83324  -0.79048  -0.76867
 Alpha  occ. eigenvalues --   -0.74795  -0.72027  -0.70713  -0.69479  -0.69247
 Alpha  occ. eigenvalues --   -0.68064  -0.67729  -0.67229  -0.65697  -0.64696
 Alpha  occ. eigenvalues --   -0.63291  -0.63100  -0.62551  -0.61614  -0.60604
 Alpha  occ. eigenvalues --   -0.60218  -0.59677  -0.58375  -0.57927  -0.56640
 Alpha  occ. eigenvalues --   -0.56315  -0.55807  -0.55492  -0.55023  -0.54382
 Alpha  occ. eigenvalues --   -0.53956  -0.53744  -0.53249  -0.52496  -0.52242
 Alpha  occ. eigenvalues --   -0.51911  -0.51013  -0.50572  -0.49956  -0.49009
 Alpha  occ. eigenvalues --   -0.48770  -0.48293  -0.47608  -0.46794  -0.45931
 Alpha  occ. eigenvalues --   -0.45172  -0.44495  -0.43782  -0.42981  -0.42107
 Alpha  occ. eigenvalues --   -0.41598  -0.40641
 Alpha virt. eigenvalues --   -0.16072  -0.13741  -0.12715  -0.10428  -0.09718
 Alpha virt. eigenvalues --   -0.08427  -0.07893  -0.06548  -0.06069  -0.05434
 Alpha virt. eigenvalues --   -0.05283  -0.04727  -0.04385  -0.03787  -0.03521
 Alpha virt. eigenvalues --   -0.02389  -0.01414  -0.01217  -0.00175   0.00130
 Alpha virt. eigenvalues --    0.00456   0.01301   0.01480   0.01773   0.02758
 Alpha virt. eigenvalues --    0.03331   0.03717   0.03961   0.04582   0.04691
 Alpha virt. eigenvalues --    0.05604   0.06531   0.07395   0.08362   0.09159
 Alpha virt. eigenvalues --    0.10134   0.10334   0.10801   0.11305   0.11866
 Alpha virt. eigenvalues --    0.12108   0.12893   0.13451   0.14164   0.14456
 Alpha virt. eigenvalues --    0.14595   0.15652   0.16295   0.16619   0.17210
 Alpha virt. eigenvalues --    0.18165   0.18517   0.18978   0.19451   0.20102
 Alpha virt. eigenvalues --    0.21343   0.21520   0.21718   0.22560   0.22756
 Alpha virt. eigenvalues --    0.23243   0.23662   0.23704   0.24303   0.24672
 Alpha virt. eigenvalues --    0.25042   0.25225   0.25506   0.25634   0.26715
 Alpha virt. eigenvalues --    0.27061   0.27321   0.27576   0.28151   0.28711
 Alpha virt. eigenvalues --    0.29039   0.29432   0.29546   0.30399   0.31076
 Alpha virt. eigenvalues --    0.31391   0.32389   0.32728   0.33539   0.34030
 Alpha virt. eigenvalues --    0.34324   0.34549   0.34991   0.35898   0.36484
 Alpha virt. eigenvalues --    0.37376   0.37927   0.38495   0.38871   0.39533
 Alpha virt. eigenvalues --    0.39625   0.40201   0.41117   0.41562   0.42098
 Alpha virt. eigenvalues --    0.42404   0.42780   0.44417   0.45212   0.45418
 Alpha virt. eigenvalues --    0.46442   0.47334   0.47809   0.48218   0.48378
 Alpha virt. eigenvalues --    0.49719   0.49980   0.50739   0.52586   0.53217
 Alpha virt. eigenvalues --    0.53981   0.54541   0.55754   0.56105   0.56915
 Alpha virt. eigenvalues --    0.57358   0.58138   0.58517   0.59632   0.60282
 Alpha virt. eigenvalues --    0.60908   0.61622   0.62702   0.63691   0.64241
 Alpha virt. eigenvalues --    0.64582   0.65912   0.66255   0.66358   0.66892
 Alpha virt. eigenvalues --    0.68018   0.68553   0.69020   0.69527   0.70857
 Alpha virt. eigenvalues --    0.71127   0.71518   0.72655   0.73108   0.74367
 Alpha virt. eigenvalues --    0.75779   0.76858   0.77243   0.77884   0.79426
 Alpha virt. eigenvalues --    0.80433   0.81364   0.82032   0.82254   0.83276
 Alpha virt. eigenvalues --    0.84529   0.85019   0.86364   0.86756   0.87450
 Alpha virt. eigenvalues --    0.88212   0.88569   0.89276   0.90087   0.90396
 Alpha virt. eigenvalues --    0.91737   0.92926   0.94098   0.94611   0.95252
 Alpha virt. eigenvalues --    0.96211   0.96676   0.97830   0.98948   0.99118
 Alpha virt. eigenvalues --    1.01441   1.02734   1.04625   1.04941   1.05779
 Alpha virt. eigenvalues --    1.06944   1.08646   1.09466   1.10400   1.12272
 Alpha virt. eigenvalues --    1.12839   1.15324   1.15501   1.16276   1.17870
 Alpha virt. eigenvalues --    1.18770   1.19059   1.19619   1.20826   1.21502
 Alpha virt. eigenvalues --    1.22059   1.24042   1.24296   1.24869   1.26282
 Alpha virt. eigenvalues --    1.26710   1.27340   1.28529   1.29347   1.29534
 Alpha virt. eigenvalues --    1.30493   1.30797   1.31407   1.32420   1.33574
 Alpha virt. eigenvalues --    1.33981   1.35103   1.35442   1.35752   1.36738
 Alpha virt. eigenvalues --    1.37476   1.38100   1.38547   1.39711   1.40180
 Alpha virt. eigenvalues --    1.41890   1.42815   1.44337   1.44825   1.45550
 Alpha virt. eigenvalues --    1.46785   1.47444   1.48094   1.48686   1.49847
 Alpha virt. eigenvalues --    1.50349   1.51057   1.51771   1.52255   1.53004
 Alpha virt. eigenvalues --    1.53943   1.54428   1.56082   1.56535   1.57015
 Alpha virt. eigenvalues --    1.58407   1.59391   1.60532   1.61633   1.62363
 Alpha virt. eigenvalues --    1.64309   1.64434   1.65149   1.65643   1.66641
 Alpha virt. eigenvalues --    1.67411   1.68477   1.69807   1.70772   1.71480
 Alpha virt. eigenvalues --    1.72537   1.73669   1.74673   1.75095   1.75539
 Alpha virt. eigenvalues --    1.76626   1.77941   1.79482   1.79922   1.80267
 Alpha virt. eigenvalues --    1.80948   1.81843   1.82131   1.83406   1.84711
 Alpha virt. eigenvalues --    1.84926   1.85814   1.86831   1.87140   1.87350
 Alpha virt. eigenvalues --    1.88524   1.88973   1.89237   1.90686   1.91980
 Alpha virt. eigenvalues --    1.92295   1.92611   1.93409   1.94527   1.95133
 Alpha virt. eigenvalues --    1.95616   1.96344   1.97372   1.98099   1.98729
 Alpha virt. eigenvalues --    1.99489   2.00867   2.01946   2.02462   2.03111
 Alpha virt. eigenvalues --    2.04099   2.05478   2.05870   2.06888   2.07308
 Alpha virt. eigenvalues --    2.08706   2.09756   2.10513   2.10915   2.11797
 Alpha virt. eigenvalues --    2.13168   2.13475   2.13756   2.14158   2.15381
 Alpha virt. eigenvalues --    2.16307   2.16832   2.16960   2.18874   2.20184
 Alpha virt. eigenvalues --    2.21187   2.22068   2.22893   2.23468   2.24966
 Alpha virt. eigenvalues --    2.26205   2.27107   2.27400   2.28339   2.29355
 Alpha virt. eigenvalues --    2.30043   2.30365   2.31414   2.33583   2.33759
 Alpha virt. eigenvalues --    2.35193   2.35449   2.36143   2.38086   2.39518
 Alpha virt. eigenvalues --    2.40128   2.40369   2.41664   2.43030   2.43727
 Alpha virt. eigenvalues --    2.45474   2.46267   2.48006   2.49126   2.50292
 Alpha virt. eigenvalues --    2.51010   2.51812   2.54094   2.54402   2.54877
 Alpha virt. eigenvalues --    2.56631   2.57817   2.58433   2.59252   2.61401
 Alpha virt. eigenvalues --    2.62606   2.63119   2.63344   2.64411   2.65721
 Alpha virt. eigenvalues --    2.66896   2.67002   2.70058   2.70317   2.71143
 Alpha virt. eigenvalues --    2.72037   2.73378   2.75503   2.75869   2.77017
 Alpha virt. eigenvalues --    2.78738   2.79368   2.80812   2.81227   2.82164
 Alpha virt. eigenvalues --    2.82908   2.83785   2.85308   2.85647   2.86739
 Alpha virt. eigenvalues --    2.87782   2.88228   2.90400   2.90986   2.92050
 Alpha virt. eigenvalues --    2.92518   2.93296   2.94741   2.95797   2.96254
 Alpha virt. eigenvalues --    2.96999   2.97123   2.98269   2.98521   3.00591
 Alpha virt. eigenvalues --    3.00943   3.01563   3.02749   3.04159   3.05774
 Alpha virt. eigenvalues --    3.06165   3.06326   3.07021   3.07764   3.08177
 Alpha virt. eigenvalues --    3.09049   3.09769   3.10215   3.12646   3.13240
 Alpha virt. eigenvalues --    3.15037   3.16039   3.16579   3.18069   3.18991
 Alpha virt. eigenvalues --    3.20938   3.21377   3.21929   3.23259   3.23767
 Alpha virt. eigenvalues --    3.25448   3.26238   3.27038   3.27697   3.28779
 Alpha virt. eigenvalues --    3.29645   3.30151   3.30700   3.32442   3.33412
 Alpha virt. eigenvalues --    3.34749   3.35165   3.37209   3.39334   3.40327
 Alpha virt. eigenvalues --    3.42224   3.42702   3.43913   3.46342   3.47681
 Alpha virt. eigenvalues --    3.48840   3.50784   3.51183   3.52988   3.53434
 Alpha virt. eigenvalues --    3.58211   3.58497   3.62892   3.64511   3.66060
 Alpha virt. eigenvalues --    3.66498   3.66878   3.67439   3.68338   3.69750
 Alpha virt. eigenvalues --    3.71968   3.76037   3.77569   3.77751   3.79881
 Alpha virt. eigenvalues --    3.81811   3.83143   3.83943   3.86472   3.88079
 Alpha virt. eigenvalues --    3.89005   3.89287   3.90971   3.92746   3.93446
 Alpha virt. eigenvalues --    3.95899   3.97742   4.00130   4.01021   4.02058
 Alpha virt. eigenvalues --    4.05309   4.12162   4.13762   4.17502   4.20372
 Alpha virt. eigenvalues --    4.21815   4.28518   4.30950   4.33182   4.34234
 Alpha virt. eigenvalues --    4.37185   4.37826   4.45785   4.55571   4.56085
 Alpha virt. eigenvalues --    4.57987   4.59381   4.68283   4.68891   4.83644
 Alpha virt. eigenvalues --    4.85784   4.88558   4.92239   4.92907   4.95473
 Alpha virt. eigenvalues --    4.97751   4.99789   5.00159   5.00672   5.01173
 Alpha virt. eigenvalues --    5.01594   5.02297   5.03391   5.03644   5.04051
 Alpha virt. eigenvalues --    5.05322   5.05949   5.06183   5.06656   5.07345
 Alpha virt. eigenvalues --    5.07889   5.08217   5.08363   5.08493   5.09449
 Alpha virt. eigenvalues --    5.09880   5.11240   5.11636   5.12968   5.13738
 Alpha virt. eigenvalues --    5.13964   5.15021   5.15394   5.16596   5.17819
 Alpha virt. eigenvalues --    5.19312   5.20600   5.21105   5.22292   5.22818
 Alpha virt. eigenvalues --    5.23398   5.23941   5.24471   5.24994   5.25477
 Alpha virt. eigenvalues --    5.26183   5.27202   5.28154   5.28289   5.30506
 Alpha virt. eigenvalues --    5.31061   5.31337   5.33352   5.34613   5.35272
 Alpha virt. eigenvalues --    5.36485   5.38391   5.40510   5.41874   5.42859
 Alpha virt. eigenvalues --    5.43397   5.45686   5.46965   5.48170   5.49025
 Alpha virt. eigenvalues --    5.51751   5.53308   5.56071   5.56579   5.59404
 Alpha virt. eigenvalues --    5.60384   5.60641   5.62183   5.62337   5.64879
 Alpha virt. eigenvalues --    5.65532   5.66747   5.67331   5.74603   5.76040
 Alpha virt. eigenvalues --    5.77284   5.78376   5.81108   5.97733   6.01756
 Alpha virt. eigenvalues --    6.04532   6.05364   6.07043   6.07452   6.11795
 Alpha virt. eigenvalues --    6.18454   6.21949   6.24468   6.26163   6.28999
 Alpha virt. eigenvalues --    6.32950   6.34046   6.35488   6.36422   6.38178
 Alpha virt. eigenvalues --    6.41236   6.45995   6.48850   6.49760   6.51365
 Alpha virt. eigenvalues --    6.52197   6.52873   6.54416   6.55295   6.55914
 Alpha virt. eigenvalues --    6.56859   6.57704   6.59087   6.60055   6.61500
 Alpha virt. eigenvalues --    6.61804   6.65713   6.66152   6.66459   6.68871
 Alpha virt. eigenvalues --    6.69882   6.70203   6.71872   6.73516   6.74084
 Alpha virt. eigenvalues --    6.75170   6.76613   6.77927   6.78702   6.81129
 Alpha virt. eigenvalues --    6.83918   6.86367   6.86922   6.90756   6.92233
 Alpha virt. eigenvalues --    6.94615   6.97991   7.00675   7.02213   7.05833
 Alpha virt. eigenvalues --    7.07980   7.12776   7.15567   7.17968   7.76967
 Alpha virt. eigenvalues --    7.77117   7.94060   7.98852   8.16053   8.18197
 Alpha virt. eigenvalues --   16.61912  16.67831  22.24636  22.27078  22.32857
 Alpha virt. eigenvalues --   22.36297  23.10569  23.12287  32.21408  32.27624
 Alpha virt. eigenvalues --   43.44011  43.53253  43.60118  43.66755  43.68447
 Alpha virt. eigenvalues --   43.72478  43.77152  43.78738  43.82427  43.87062
  Beta  occ. eigenvalues -- -323.50964 -77.46359 -77.44106 -39.27367 -34.39230
  Beta  occ. eigenvalues --  -34.39030 -34.37542 -19.42247 -19.39738 -19.38397
  Beta  occ. eigenvalues --  -19.36330 -19.35034 -19.34398 -19.33722 -19.30909
  Beta  occ. eigenvalues --  -19.30042 -19.28126 -14.58827 -14.57968 -10.55160
  Beta  occ. eigenvalues --  -10.52476 -10.44709 -10.42990 -10.41582 -10.40287
  Beta  occ. eigenvalues --   -6.86808  -6.84556  -4.98903  -4.98719  -4.98610
  Beta  occ. eigenvalues --   -4.96639  -4.96489  -4.96351  -4.59166  -3.04779
  Beta  occ. eigenvalues --   -3.04656  -3.04582  -1.30336  -1.27519  -1.21833
  Beta  occ. eigenvalues --   -1.21526  -1.19072  -1.18942  -1.16266  -1.12547
  Beta  occ. eigenvalues --   -1.11818  -1.10052  -1.09293  -1.08511  -0.92576
  Beta  occ. eigenvalues --   -0.90684  -0.85075  -0.83219  -0.78959  -0.76801
  Beta  occ. eigenvalues --   -0.74731  -0.71832  -0.70265  -0.69295  -0.69053
  Beta  occ. eigenvalues --   -0.67855  -0.67593  -0.67069  -0.65535  -0.64596
  Beta  occ. eigenvalues --   -0.63093  -0.62948  -0.61750  -0.61469  -0.60393
  Beta  occ. eigenvalues --   -0.59851  -0.58610  -0.57783  -0.56580  -0.56241
  Beta  occ. eigenvalues --   -0.55845  -0.55083  -0.54487  -0.54107  -0.53515
  Beta  occ. eigenvalues --   -0.52663  -0.52535  -0.51950  -0.51511  -0.50975
  Beta  occ. eigenvalues --   -0.50278  -0.50035  -0.49704  -0.49384  -0.48567
  Beta  occ. eigenvalues --   -0.48409  -0.47329  -0.47031  -0.46225  -0.45591
  Beta  occ. eigenvalues --   -0.44875  -0.44212  -0.43617  -0.42234  -0.41331
  Beta  occ. eigenvalues --   -0.41128
  Beta virt. eigenvalues --   -0.24691  -0.16022  -0.13722  -0.12694  -0.10405
  Beta virt. eigenvalues --   -0.09703  -0.08422  -0.07889  -0.06538  -0.06062
  Beta virt. eigenvalues --   -0.05377  -0.05244  -0.04723  -0.04358  -0.03767
  Beta virt. eigenvalues --   -0.03464  -0.02367  -0.01338  -0.01201  -0.00113
  Beta virt. eigenvalues --    0.00177   0.00433   0.01359   0.01502   0.01845
  Beta virt. eigenvalues --    0.02840   0.03440   0.03730   0.03993   0.04589
  Beta virt. eigenvalues --    0.04755   0.05667   0.06631   0.07444   0.08469
  Beta virt. eigenvalues --    0.09134   0.10161   0.10368   0.10821   0.11310
  Beta virt. eigenvalues --    0.11915   0.12142   0.12928   0.13474   0.14235
  Beta virt. eigenvalues --    0.14470   0.14630   0.15652   0.16336   0.16632
  Beta virt. eigenvalues --    0.17229   0.18183   0.18540   0.18986   0.19495
  Beta virt. eigenvalues --    0.20122   0.21346   0.21534   0.21735   0.22566
  Beta virt. eigenvalues --    0.22787   0.23280   0.23710   0.23770   0.24344
  Beta virt. eigenvalues --    0.24690   0.25061   0.25249   0.25536   0.25670
  Beta virt. eigenvalues --    0.26753   0.27073   0.27350   0.27590   0.28181
  Beta virt. eigenvalues --    0.28748   0.29040   0.29456   0.29572   0.30422
  Beta virt. eigenvalues --    0.31094   0.31412   0.32425   0.32757   0.33603
  Beta virt. eigenvalues --    0.34074   0.34372   0.34594   0.35040   0.35934
  Beta virt. eigenvalues --    0.36523   0.37404   0.37965   0.38542   0.38890
  Beta virt. eigenvalues --    0.39555   0.39640   0.40243   0.41125   0.41586
  Beta virt. eigenvalues --    0.42112   0.42435   0.42805   0.44429   0.45234
  Beta virt. eigenvalues --    0.45465   0.46451   0.47328   0.47828   0.48225
  Beta virt. eigenvalues --    0.48403   0.49753   0.49988   0.50756   0.52600
  Beta virt. eigenvalues --    0.53241   0.54004   0.54553   0.55758   0.56118
  Beta virt. eigenvalues --    0.56925   0.57370   0.58194   0.58541   0.59645
  Beta virt. eigenvalues --    0.60321   0.60935   0.61655   0.62749   0.63692
  Beta virt. eigenvalues --    0.64271   0.64591   0.65938   0.66286   0.66388
  Beta virt. eigenvalues --    0.66923   0.68034   0.68609   0.69042   0.69548
  Beta virt. eigenvalues --    0.70872   0.71150   0.71538   0.72689   0.73099
  Beta virt. eigenvalues --    0.74423   0.75798   0.76896   0.77282   0.77922
  Beta virt. eigenvalues --    0.79435   0.80451   0.81396   0.82080   0.82328
  Beta virt. eigenvalues --    0.83311   0.84559   0.85072   0.86435   0.86803
  Beta virt. eigenvalues --    0.87564   0.88220   0.88607   0.89334   0.90156
  Beta virt. eigenvalues --    0.90452   0.91839   0.92954   0.94159   0.94648
  Beta virt. eigenvalues --    0.95288   0.96248   0.96820   0.97877   0.99098
  Beta virt. eigenvalues --    0.99156   1.01489   1.02760   1.04646   1.05000
  Beta virt. eigenvalues --    1.05898   1.07153   1.09167   1.09519   1.10567
  Beta virt. eigenvalues --    1.12322   1.12869   1.15361   1.15566   1.16302
  Beta virt. eigenvalues --    1.17913   1.18809   1.19099   1.19631   1.20842
  Beta virt. eigenvalues --    1.21514   1.22088   1.24063   1.24315   1.24883
  Beta virt. eigenvalues --    1.26286   1.26731   1.27369   1.28567   1.29420
  Beta virt. eigenvalues --    1.29574   1.30521   1.30830   1.31425   1.32469
  Beta virt. eigenvalues --    1.33636   1.34011   1.35133   1.35504   1.35777
  Beta virt. eigenvalues --    1.36756   1.37499   1.38115   1.38598   1.39733
  Beta virt. eigenvalues --    1.40251   1.41949   1.42831   1.44358   1.44908
  Beta virt. eigenvalues --    1.45572   1.46829   1.47498   1.48144   1.48719
  Beta virt. eigenvalues --    1.49866   1.50416   1.51088   1.51788   1.52279
  Beta virt. eigenvalues --    1.53020   1.53977   1.54525   1.56167   1.56560
  Beta virt. eigenvalues --    1.57045   1.58435   1.59420   1.60567   1.61654
  Beta virt. eigenvalues --    1.62395   1.64352   1.64444   1.65173   1.65697
  Beta virt. eigenvalues --    1.66652   1.67427   1.68481   1.69823   1.70807
  Beta virt. eigenvalues --    1.71509   1.72536   1.73697   1.74737   1.75115
  Beta virt. eigenvalues --    1.75553   1.76634   1.77964   1.79494   1.79935
  Beta virt. eigenvalues --    1.80287   1.80956   1.81849   1.82140   1.83412
  Beta virt. eigenvalues --    1.84705   1.84954   1.85820   1.86834   1.87148
  Beta virt. eigenvalues --    1.87357   1.88538   1.88997   1.89239   1.90685
  Beta virt. eigenvalues --    1.91990   1.92294   1.92656   1.93424   1.94557
  Beta virt. eigenvalues --    1.95142   1.95643   1.96372   1.97399   1.98130
  Beta virt. eigenvalues --    1.98726   1.99521   2.00892   2.01938   2.02469
  Beta virt. eigenvalues --    2.03115   2.04102   2.05494   2.05912   2.06903
  Beta virt. eigenvalues --    2.07310   2.08714   2.09777   2.10553   2.10943
  Beta virt. eigenvalues --    2.11805   2.13191   2.13493   2.13795   2.14135
  Beta virt. eigenvalues --    2.15404   2.16331   2.16837   2.16986   2.18896
  Beta virt. eigenvalues --    2.20223   2.21213   2.22092   2.22931   2.23547
  Beta virt. eigenvalues --    2.25058   2.26227   2.27140   2.27429   2.28408
  Beta virt. eigenvalues --    2.29384   2.30066   2.30399   2.31462   2.33632
  Beta virt. eigenvalues --    2.33835   2.35246   2.35498   2.36186   2.38151
  Beta virt. eigenvalues --    2.39543   2.40184   2.40408   2.41765   2.43032
  Beta virt. eigenvalues --    2.43784   2.45546   2.46345   2.48087   2.49221
  Beta virt. eigenvalues --    2.50330   2.51045   2.51834   2.54151   2.54422
  Beta virt. eigenvalues --    2.54958   2.56767   2.57885   2.58521   2.59293
  Beta virt. eigenvalues --    2.61509   2.62648   2.63151   2.63445   2.64459
  Beta virt. eigenvalues --    2.65839   2.66936   2.67049   2.70130   2.70364
  Beta virt. eigenvalues --    2.71253   2.72092   2.73541   2.75616   2.76098
  Beta virt. eigenvalues --    2.77104   2.78764   2.79472   2.80868   2.81258
  Beta virt. eigenvalues --    2.82216   2.83111   2.83900   2.85429   2.85704
  Beta virt. eigenvalues --    2.86803   2.87883   2.88292   2.90499   2.91041
  Beta virt. eigenvalues --    2.92133   2.92590   2.93338   2.94783   2.95844
  Beta virt. eigenvalues --    2.96282   2.97057   2.97196   2.98335   2.98629
  Beta virt. eigenvalues --    3.00639   3.00990   3.01609   3.02871   3.04202
  Beta virt. eigenvalues --    3.05850   3.06218   3.06372   3.07063   3.07793
  Beta virt. eigenvalues --    3.08211   3.09077   3.09828   3.10290   3.12701
  Beta virt. eigenvalues --    3.13296   3.15084   3.16173   3.16651   3.18101
  Beta virt. eigenvalues --    3.19041   3.20988   3.21459   3.21993   3.23326
  Beta virt. eigenvalues --    3.23788   3.25506   3.26298   3.27089   3.27762
  Beta virt. eigenvalues --    3.28852   3.29722   3.30185   3.30764   3.32544
  Beta virt. eigenvalues --    3.33486   3.34816   3.35283   3.37318   3.39392
  Beta virt. eigenvalues --    3.40415   3.42298   3.42762   3.43983   3.46377
  Beta virt. eigenvalues --    3.47683   3.48931   3.50816   3.51221   3.53067
  Beta virt. eigenvalues --    3.53477   3.58249   3.58542   3.62931   3.64533
  Beta virt. eigenvalues --    3.66088   3.66544   3.66892   3.67539   3.68503
  Beta virt. eigenvalues --    3.69820   3.72248   3.76301   3.77665   3.77845
  Beta virt. eigenvalues --    3.80003   3.82007   3.83273   3.84157   3.86708
  Beta virt. eigenvalues --    3.88177   3.89121   3.89422   3.91095   3.93104
  Beta virt. eigenvalues --    3.93552   3.96001   3.97789   4.00332   4.01139
  Beta virt. eigenvalues --    4.02093   4.05557   4.12282   4.13897   4.17504
  Beta virt. eigenvalues --    4.20610   4.22551   4.28878   4.31138   4.33330
  Beta virt. eigenvalues --    4.34399   4.37310   4.38374   4.46590   4.55801
  Beta virt. eigenvalues --    4.56658   4.58189   4.59741   4.68489   4.69144
  Beta virt. eigenvalues --    4.84035   4.86066   4.89220   4.92842   4.93324
  Beta virt. eigenvalues --    4.95817   4.97846   4.99830   5.00356   5.00786
  Beta virt. eigenvalues --    5.01317   5.01778   5.02337   5.03499   5.04059
  Beta virt. eigenvalues --    5.04254   5.05416   5.06071   5.06515   5.06808
  Beta virt. eigenvalues --    5.07544   5.08008   5.08339   5.08659   5.08703
  Beta virt. eigenvalues --    5.09648   5.10325   5.11650   5.11923   5.13070
  Beta virt. eigenvalues --    5.13860   5.14027   5.15288   5.15548   5.16683
  Beta virt. eigenvalues --    5.17875   5.19525   5.20704   5.21354   5.22405
  Beta virt. eigenvalues --    5.23010   5.23563   5.24037   5.24587   5.25063
  Beta virt. eigenvalues --    5.25544   5.26236   5.27385   5.28273   5.28598
  Beta virt. eigenvalues --    5.30665   5.31238   5.31516   5.33417   5.34717
  Beta virt. eigenvalues --    5.35412   5.36505   5.38459   5.40587   5.41929
  Beta virt. eigenvalues --    5.42933   5.43508   5.45744   5.47025   5.48471
  Beta virt. eigenvalues --    5.49094   5.51833   5.53367   5.56587   5.56864
  Beta virt. eigenvalues --    5.60663   5.61584   5.62769   5.62984   5.65239
  Beta virt. eigenvalues --    5.66138   5.66557   5.69151   5.69730   5.75503
  Beta virt. eigenvalues --    5.76121   5.77533   5.78438   5.84229   5.97784
  Beta virt. eigenvalues --    6.01758   6.04641   6.05379   6.07057   6.07461
  Beta virt. eigenvalues --    6.11811   6.18528   6.21959   6.24702   6.26235
  Beta virt. eigenvalues --    6.29056   6.33112   6.34138   6.35704   6.36659
  Beta virt. eigenvalues --    6.38251   6.41338   6.46255   6.48908   6.49930
  Beta virt. eigenvalues --    6.51464   6.52223   6.53254   6.54664   6.55367
  Beta virt. eigenvalues --    6.56092   6.56982   6.57774   6.59151   6.60168
  Beta virt. eigenvalues --    6.61512   6.62091   6.65772   6.66228   6.66794
  Beta virt. eigenvalues --    6.69000   6.69964   6.70365   6.71961   6.73582
  Beta virt. eigenvalues --    6.74214   6.75290   6.76943   6.78086   6.78882
  Beta virt. eigenvalues --    6.81158   6.84580   6.86604   6.87146   6.90775
  Beta virt. eigenvalues --    6.92304   6.94627   6.98031   7.00903   7.02225
  Beta virt. eigenvalues --    7.05892   7.08442   7.12793   7.15660   7.17978
  Beta virt. eigenvalues --    7.77023   7.77129   7.94063   7.98851   8.16055
  Beta virt. eigenvalues --    8.18178  16.61916  16.67832  22.24643  22.27085
  Beta virt. eigenvalues --   22.32871  22.36309  23.10575  23.12286  32.21614
  Beta virt. eigenvalues --   32.27827  43.44015  43.53260  43.60134  43.66775
  Beta virt. eigenvalues --   43.68454  43.72484  43.77220  43.78879  43.82549
  Beta virt. eigenvalues --   43.87114
          Condensed to atoms (all electrons):
               1          2          3          4          5          6
     1  C    4.587184   0.195580  -0.018223   0.368598   0.422633   0.006235
     2  C    0.195580   5.166520   0.178300  -0.091733  -0.034810  -0.037457
     3  N   -0.018223   0.178300   6.556605   0.002975  -0.036064   0.160620
     4  O    0.368598  -0.091733   0.002975   7.884405  -0.066781  -0.000115
     5  O    0.422633  -0.034810  -0.036064  -0.066781   8.010924   0.003424
     6  C    0.006235  -0.037457   0.160620  -0.000115   0.003424   5.186592
     7  P   -0.002151   0.004097  -0.018682   0.000140  -0.000437   0.277895
     8  O    0.000107  -0.000542   0.001407   0.000000  -0.000009  -0.016416
     9  O    0.012799   0.003198  -0.014373  -0.000081  -0.018508  -0.049694
    10  O    0.001198  -0.010323  -0.000364  -0.000018  -0.000000  -0.026646
    11  H   -0.000019   0.000048  -0.000298   0.000000   0.000004   0.004364
    12  Cu  -0.020613  -0.027137   0.139223   0.001090   0.110964  -0.016164
    13  H   -0.013987   0.011543  -0.000417   0.284090   0.006354   0.000003
    14  H   -0.000570  -0.022564   0.366712  -0.000030   0.001156  -0.031082
    15  H   -0.022477   0.400643  -0.023401   0.003204  -0.000069  -0.001244
    16  H   -0.042159   0.424983  -0.034444   0.003856   0.000311   0.003698
    17  H   -0.000593   0.006275  -0.020512   0.000000   0.000009   0.396110
    18  H    0.000246  -0.011176  -0.032245   0.000003   0.000017   0.403942
    19  C    0.000510  -0.000393   0.000473   0.000016   0.004406  -0.000134
    20  O   -0.000001  -0.000001  -0.000002   0.000000  -0.000038  -0.000001
    21  O    0.003974  -0.000289  -0.003848  -0.000031  -0.019474  -0.000193
    22  C   -0.000458   0.000095   0.000109  -0.000006  -0.000925  -0.000000
    23  N    0.001252   0.000077  -0.005775  -0.000022  -0.019297   0.000874
    24  C   -0.000048  -0.000102   0.001011  -0.000003   0.001408  -0.000641
    25  P   -0.000072   0.000214   0.001769   0.000001   0.000454  -0.007581
    26  O    0.001815  -0.001614  -0.037311  -0.000001  -0.001447   0.010024
    27  O   -0.000001   0.000020   0.000086  -0.000000  -0.000001  -0.002031
    28  O    0.000001  -0.000001  -0.000010   0.000000  -0.000000  -0.000042
    29  H   -0.000009  -0.000001   0.000001   0.000000   0.000027   0.000000
    30  H    0.000031  -0.000009   0.000003   0.000000  -0.000011  -0.000029
    31  H   -0.000026  -0.000001   0.000002  -0.000000  -0.000060  -0.000000
    32  H    0.000316   0.000007   0.000044  -0.000004   0.001244  -0.000104
    33  H    0.000011  -0.000006  -0.000009  -0.000000  -0.000003   0.000027
    34  H   -0.000052  -0.000005  -0.000071   0.000001  -0.000191   0.000551
    35  H   -0.000020   0.000249  -0.000168  -0.000003   0.000004   0.003575
    36  H   -0.000000  -0.000000   0.000004   0.000000   0.000000  -0.000008
               7          8          9         10         11         12
     1  C   -0.002151   0.000107   0.012799   0.001198  -0.000019  -0.020613
     2  C    0.004097  -0.000542   0.003198  -0.010323   0.000048  -0.027137
     3  N   -0.018682   0.001407  -0.014373  -0.000364  -0.000298   0.139223
     4  O    0.000140   0.000000  -0.000081  -0.000018   0.000000   0.001090
     5  O   -0.000437  -0.000009  -0.018508  -0.000000   0.000004   0.110964
     6  C    0.277895  -0.016416  -0.049694  -0.026646   0.004364  -0.016164
     7  P   12.693525   0.387027   0.516021   0.385392  -0.007292   0.012210
     8  O    0.387027   7.949973  -0.027853  -0.029026   0.263345  -0.002489
     9  O    0.516021  -0.027853   8.041036  -0.028227   0.000792   0.063119
    10  O    0.385392  -0.029026  -0.028227   7.905814   0.000354   0.000951
    11  H   -0.007292   0.263345   0.000792   0.000354   0.259554  -0.000384
    12  Cu   0.012210  -0.002489   0.063119   0.000951  -0.000384  28.261330
    13  H   -0.000014  -0.000000   0.000017   0.000001  -0.000000  -0.000177
    14  H    0.007032  -0.000165   0.000351  -0.000159   0.000024  -0.018827
    15  H    0.000211   0.000002   0.000301   0.000055  -0.000001   0.001817
    16  H   -0.003551   0.000151  -0.001149   0.008026  -0.000005  -0.001035
    17  H   -0.019777  -0.000638   0.002294   0.001160   0.000394  -0.006309
    18  H   -0.028431   0.002606   0.001851   0.000194  -0.000109   0.004246
    19  C    0.000049   0.000001   0.000166  -0.000000  -0.000007   0.020550
    20  O    0.000000   0.000000  -0.000000   0.000000   0.000000  -0.000913
[...]
 3,0.00077019,0.00030352,-0.00012152,-0.00032716,-0.00063450,-0.0002645
 5,0.00028295,-0.00001148,0.00000918,0.00007745,-0.00005835,0.00009127,
 0.00006828,0.00003117,-0.00008523,0.00040548,-0.00680886,0.00309607,-0
 .00776566,0.11706382,-0.07540559,0.19110902,-0.00102465,-0.00035870,-0
 .00028885,0.00039480,0.00036435,-0.00038480,-0.00081477,-0.00056811,0.
 00012467,0.00036804,0.00030419,-0.00002570,0.00061328,-0.00052785,0.00
 169743,0.00003992,-0.00020398,0.00015435,-0.00005593,0.00069345,-0.000
 98004,-0.00028841,-0.00044357,0.00021828,0.00036028,-0.00078682,0.0012
 3216,0.00009396,-0.00012815,0.00017915,0.00053641,0.00010205,-0.000024
 67,0.00240956,0.00533875,-0.00785659,-0.00006112,-0.00014476,-0.000017
 66,0.00004454,0.00003248,0.00007632,-0.00006705,-0.00010228,0.00007906
 ,-0.00005612,-0.00008262,0.00005767,0.00004480,0.00001291,0.00006728,-
 0.00003757,0.00007812,0.00002610,-0.00100591,-0.00093539,-0.00023762,-
 0.00004406,0.00051412,0.00014717,0.00022410,-0.00060361,0.00021621,-0.
 01276177,-0.01669865,0.02737106,-0.04948006,-0.02550105,0.05834978,-0.
 00044938,-0.00114496,-0.00103503,0.00010297,-0.00060484,-0.00013018,-0
 .00025784,0.00161913,-0.00099095,-0.00079583,0.00088526,-0.00013559,0.
 00052956,0.00049522,-0.00038387,-0.00002786,0.00011411,-0.00007537,-0.
 00417533,0.00264551,0.00272135,0.00127903,-0.00065715,-0.00036921,0.06
 421988,-0.00040404,-0.00017960,-0.00003931,0.00025147,0.00026101,-0.00
 016182,-0.00039340,-0.00022859,0.00005435,0.00008279,0.00001845,0.0000
 4221,0.00029722,-0.00069120,0.00062408,-0.00007790,-0.00001237,-0.0000
 2685,0.00028551,-0.00065354,0.00023340,0.00035031,0.00040110,-0.000038
 19,-0.00032348,0.00019806,-0.00023870,-0.00014643,0.00010761,-0.000022
 93,-0.00064819,-0.00017657,0.00004630,0.00144657,0.00181149,-0.0006923
 8,-0.00010874,-0.00000640,-0.00004601,-0.00002262,0.00001232,0.0000317
 6,-0.00002652,-0.00006360,0.00004427,-0.00001977,-0.00004136,0.0000427
 0,0.00000624,-0.00002472,-0.00000498,-0.00000627,0.00003534,-0.0000238
 4,0.00168831,0.00132771,0.00004130,0.00010819,-0.00079567,-0.00036247,
 -0.00067442,-0.00074419,-0.00009870,0.00416385,0.00733291,-0.01150424,
 -0.03928162,-0.15480463,0.15693456,-0.00446476,-0.02289334,0.02687547,
 -0.00108036,-0.00339196,-0.00538935,0.00028300,0.00173735,0.00001302,0
 .00138795,-0.00111950,0.00119417,-0.00060623,-0.00007673,0.00105104,0.
 00005758,-0.00006246,0.00000099,0.00130687,-0.00047805,-0.00106161,0.0
 0077743,0.00061111,-0.00030988,0.03577417,0.17059755,-0.00106304,-0.00
 031347,-0.00024317,0.00013970,0.00011002,-0.00004090,-0.00022762,-0.00
 017610,0.00013239,0.00058733,0.00047320,-0.00016334,0.00105821,0.00007
 779,0.00056186,0.00000877,0.00002476,0.00002043,-0.00023933,0.00021710
 ,-0.00013447,0.00009772,-0.00008394,0.00001267,0.00020955,-0.00023172,
 -0.00007426,0.00018036,-0.00004437,-0.00002204,-0.00013666,-0.00000217
 ,0.00000860,-0.00029214,0.00384021,-0.00639793,-0.00005027,-0.00010231
 ,0.00014452,0.00004075,0.00001000,0.00000065,-0.00001154,-0.00004200,0
 .00003407,-0.00001677,-0.00002775,0.00003428,0.00000947,-0.00000814,0.
 00000275,0.00000093,-0.00000557,0.00000449,0.00221459,0.00051696,-0.00
 096938,-0.00035043,-0.00009651,-0.00013926,-0.00054165,-0.00048958,0.0
 0014783,-0.00145636,0.00565277,-0.00922354,0.08562199,0.17129554,-0.29
 491327,-0.00397462,-0.00957575,0.00872709,-0.00077804,-0.00108541,-0.0
 0151682,-0.00044489,0.00092514,-0.00035919,0.00050749,-0.00036043,0.00
 040662,-0.00031081,-0.00015179,0.00055728,0.00008384,-0.00013341,0.000
 03175,0.00011828,-0.00139443,0.00028289,-0.00059247,-0.00039316,0.0019
 8512,-0.08021802,-0.16756107,0.30004616,0.00009584,0.00009940,-0.00000
 122,0.00001396,0.00001532,-0.00000271,0.00003734,-0.00003001,0.0000394
 2,-0.00004902,-0.00007158,0.00003586,-0.00006829,-0.00006587,-0.000021
 18,-0.00002702,0.00007588,-0.00004578,0.00055093,-0.00052457,0.0004900
 9,-0.00002304,0.00018854,-0.00005307,-0.00074561,-0.00003841,-0.000542
 79,-0.00023857,0.00008989,-0.00002028,-0.00002763,-0.00009925,0.000024
 07,0.00012469,0.00038618,0.00024675,0.00000215,0.00002018,-0.00001875,
 -0.00001153,-0.00000235,0.00000363,0.00000313,-0.00000342,-0.00000215,
 0.00001009,0.00000484,0.00000492,0.00000468,-0.00000932,-0.00000691,0.
 00000795,-0.00001766,-0.00002605,-0.00001987,0.00001158,-0.00009788,-0
 .00000738,-0.00005074,-0.00003791,-0.00001735,0.00009297,0.00019897,0.
 00185784,0.00020137,0.00173783,0.00405641,0.00004071,0.00197650,-0.240
 30465,-0.05257377,-0.10750803,-0.00318193,-0.00190280,0.00176128,0.000
 48999,0.00037090,0.00067348,0.00036284,0.00076992,-0.00053775,0.000717
 17,-0.00013515,0.00059792,-0.00000384,0.00000897,0.00000386,0.00025854
 ,0.00017517,0.00003504,0.00038288,-0.00038480,-0.00087705,-0.00038753,
 -0.00049997,-0.00023928,0.25249475,0.00060364,0.00008201,0.00024782,-0
 .00003553,0.00003858,-0.00007128,-0.00009952,0.00011397,0.00001125,-0.
 00027044,-0.00019383,0.00002730,-0.00073921,-0.00045636,-0.00009572,-0
 .00001522,-0.00014135,-0.00000398,-0.00046803,-0.00011857,-0.00033137,
 0.00024644,0.00013901,0.00007165,0.00048711,0.00033501,0.00032304,0.00
 014387,0.00001607,0.00003039,-0.00036473,0.00006168,-0.00009604,0.0012
 1655,-0.00288899,0.00146027,0.00002360,0.00004588,-0.00004370,-0.00006
 352,-0.00001919,0.00001880,-0.00000876,0.00000654,0.00000484,-0.000004
 65,-0.00000541,-0.00001728,-0.00006354,0.00002232,-0.00003119,0.000001
 62,0.00008206,0.00000171,-0.00070444,-0.00015883,-0.00054859,0.0002573
 8,-0.00007346,0.00002527,0.00082904,-0.00013076,-0.00021293,-0.0032826
 1,0.00206603,0.00125172,-0.02776468,-0.02067548,-0.01991324,-0.0429957
 6,-0.05779339,-0.02480158,0.01065194,0.00689815,-0.00170499,0.00154305
 ,0.00225136,0.00511681,-0.00051756,-0.00284676,0.00058064,-0.00070069,
 -0.00015291,-0.00033317,-0.00003087,-0.00000169,0.00004829,0.00030706,
 0.00027458,-0.00023854,0.00017662,-0.00024382,0.00037109,-0.00048125,0
 .00044836,-0.00082581,0.05841595,0.07139132,0.00009762,0.00003304,0.00
 001909,0.00001137,0.00003581,-0.00003965,-0.00003680,-0.00001125,-0.00
 000051,-0.00005581,-0.00005883,0.00002072,-0.00011355,-0.00008884,-0.0
 0001132,-0.00000956,-0.00004504,0.00004516,0.00000495,0.00017282,-0.00
 041344,-0.00000725,-0.00002950,0.00007444,0.00045504,0.00012038,0.0005
 4692,0.00004266,-0.00002217,0.00005029,0.00005165,0.00001212,-0.000032
 47,0.00026030,0.00038684,-0.00048436,0.00000299,0.00001333,-0.00000712
 ,0.00003044,0.00004393,0.00002454,-0.00000965,-0.00000690,0.00000632,-
 0.00000827,-0.00000847,-0.00000222,0.00007432,-0.00000835,0.00005853,-
 0.00003142,-0.00000664,0.00003107,-0.00048336,-0.00017173,-0.00084966,
 0.00013524,0.00006306,0.00010512,0.00064268,-0.00005883,0.00030078,-0.
 00080595,0.00022742,0.00080250,-0.00373033,-0.00479937,-0.00290993,-0.
 11133197,-0.03129510,-0.10385080,-0.01812387,-0.00719197,-0.00598505,-
 0.00097503,-0.00054847,-0.00533939,0.00056553,0.00276817,-0.00058886,0
 .00144077,-0.00056734,0.00206986,-0.00001515,-0.00001333,0.00001349,0.
 00011788,-0.00043911,-0.00068564,0.00002914,-0.00029061,-0.00020594,0.
 00063273,0.00028271,0.00018967,0.11522692,0.03588467,0.10652353,0.0000
 3375,-0.00011863,0.00004905,-0.00002425,0.00000143,-0.00004144,-0.0001
 1029,0.00003342,0.00002687,-0.00000117,0.00004685,-0.00003164,-0.00006
 259,0.00008389,0.00002656,0.00014131,-0.00018476,0.00013963,-0.0011910
 3,0.00089945,-0.00135866,-0.00012462,-0.00039702,0.00031237,-0.0010120
 8,-0.00051990,0.00086224,0.00032455,-0.00009392,0.00009685,0.00046768,
 0.00019168,-0.00013997,0.00089150,-0.00028313,-0.00043189,0.00001101,-
 0.00002307,0.00000942,0.00003667,0.00002309,0.00001433,-0.00001149,-0.
 00000011,0.00000912,-0.00002188,-0.00001350,-0.00001474,0.00000151,0.0
 0001430,0.00004011,-0.00002966,0.00005461,0.00007615,0.00012742,0.0000
 6089,-0.00026403,-0.00001362,-0.00002932,-0.00002884,0.00004581,-0.000
 02153,0.00006847,0.00051558,-0.00042875,0.00040137,0.00232689,-0.00098
 966,-0.00250257,-0.21205892,0.03704862,0.12962665,0.00243793,-0.001921
 98,-0.00024485,-0.00157057,-0.00024014,-0.00088219,-0.00031742,-0.0002
 0172,-0.00034660,0.00094990,0.00102562,-0.00031494,0.00000544,-0.00002
 590,-0.00000596,0.00013094,0.00022461,-0.00021880,0.00007275,-0.000153
 16,-0.00009883,0.00048130,0.00048347,0.00006345,-0.01643342,0.00366114
 ,0.01587663,0.22388972,-0.00006497,-0.00004740,-0.00003366,0.00001009,
 -0.00001316,-0.00000037,0.00006252,-0.00003242,-0.00000358,0.00001634,
 0.00003027,-0.00000509,-0.00000834,-0.00001852,0.00016179,0.00002740,-
 0.00006103,0.00005950,0.00006427,0.00066779,0.00017433,-0.00010204,-0.
 00033983,-0.00015996,-0.00027453,-0.00082377,0.00002163,0.00008944,-0.
 00010902,0.00000803,0.00014071,-0.00008135,0.00032770,0.00047567,-0.00
 036044,-0.00007158,-0.00000058,-0.00002157,-0.00001279,0.00000282,-0.0
 0002993,-0.00000320,0.00000283,0.00000103,0.00000072,-0.00000246,-0.00
 000005,0.00000071,-0.00001151,0.00002163,-0.00000442,0.00000546,0.0000
 1403,0.00000740,0.00198677,0.00017919,0.00077171,0.00008968,-0.0006585
 7,-0.00079605,-0.00050414,-0.00006682,-0.00021527,-0.00182322,-0.00548
 679,-0.00184053,0.02782864,-0.01282127,-0.02383154,0.02473504,-0.05008
 141,-0.02061721,-0.01267088,0.00485744,0.00433864,0.00232128,0.0004420
 6,0.00137093,0.00074000,-0.00042802,-0.00115769,-0.00128696,-0.0036008
 2,0.00281153,0.00009139,-0.00005318,-0.00004172,-0.00020049,-0.0001624
 6,-0.00005810,0.00028893,-0.00019744,-0.00017692,0.00101329,0.00149344
 ,-0.00010170,-0.00461949,0.00169843,0.00529688,-0.03828024,0.06577896,
 -0.00004497,-0.00016688,0.00005270,-0.00004351,-0.00001988,-0.00001427
 ,-0.00008406,0.00007940,0.00001356,0.00004514,0.00009055,-0.00006235,-
 0.00000395,0.00015464,-0.00002437,0.00004255,-0.00015330,0.00007587,-0
 .00136181,0.00046067,-0.00123484,0.00038138,-0.00007480,0.00023020,0.0
 0151079,0.00036343,0.00091598,0.00055817,-0.00010990,0.00006465,-0.000
 49477,0.00022820,-0.00025850,0.00085325,-0.00068256,-0.00086251,0.0000
 0599,-0.00002473,0.00002767,0.00004823,0.00002466,0.00000669,-0.000007
 93,0.00000661,0.00000788,-0.00002135,-0.00001591,-0.00001323,0.0000131
 6,0.00000109,0.00003273,-0.00002547,0.00003490,0.00005291,0.00031444,0
 .00008896,0.00029082,-0.00006215,-0.00004914,-0.00008613,-0.00016076,0
 .00000171,-0.00004525,-0.00066170,-0.00025622,0.00079870,0.00388740,-0
 .00039226,-0.00407279,0.13416469,-0.03278565,-0.14762422,0.01799892,-0
 .00491958,-0.01156177,-0.00340611,0.00024012,-0.00147971,-0.00091067,-
 0.00159671,0.00287969,0.00097603,0.00347225,-0.00205477,0.00001697,0.0
 0001951,0.00000569,-0.00016097,-0.00000658,-0.00004766,0.00005433,-0.0
 0031088,-0.00014362,-0.00014125,-0.00002002,0.00081012,-0.01292395,0.0
 0360017,0.01049925,-0.14061576,0.03294041,0.15357018,0.00042418,0.0005
 7936,-0.00015033,0.00003520,-0.00011067,-0.00002202,-0.00030118,0.0000
 3170,0.00020870,-0.00024073,-0.00034256,0.00019062,-0.00022249,-0.0003
 7725,-0.00003299,-0.00250980,-0.00103182,-0.00025434,-0.02416045,0.021
 18356,0.02610299,0.00537408,0.00092143,-0.00210257,0.00106284,-0.00207
 836,-0.00232233,-0.08841433,0.10179786,0.11605939,-0.00236807,-0.00039
 439,-0.00072816,-0.00049306,0.00064947,0.00044334,0.00004063,0.0000858
 1,-0.00005943,-0.00002326,0.00011508,-0.00003391,0.00007078,-0.0000337
 5,-0.00002940,0.00002640,0.00034492,0.00009686,0.00019352,0.00039861,0
 .00067506,0.00028846,-0.00007966,-0.00001480,-0.00025501,0.00015796,0.
 00008595,0.00018133,-0.00013347,-0.00009756,0.00017957,-0.00012396,-0.
 00004176,-0.00011412,0.00002441,0.00006323,0.00016526,-0.00010736,-0.0
 0000085,0.00002111,-0.00000396,-0.00000926,-0.00107813,0.00076345,0.00
 032102,0.00030693,-0.00019254,-0.00023625,0.00166510,-0.00033553,-0.00
 000898,0.00051653,-0.00003731,-0.00018231,-0.00002841,0.00003875,0.000
 02896,-0.00001111,0.00001153,-0.00000918,0.00002113,-0.00001077,-0.000
 01021,-0.00002505,0.00001236,-0.00003157,0.00003163,-0.00002532,-0.000
 00193,-0.00007725,0.00001298,-0.00007553,0.10984087,0.00013426,-0.0000
 6267,-0.00010162,-0.00008051,-0.00014847,0.00001172,-0.00042316,0.0002
 3840,0.00058605,-0.00007139,0.00005821,0.00005412,-0.00009281,0.000056
 60,0.00003610,-0.00209112,0.00150985,0.00094810,-0.00160535,0.00422441
 ,-0.00015012,-0.00039492,-0.00346829,-0.00005502,-0.00167776,0.0002379
 7,0.00085430,0.12765619,-0.21365150,-0.22732349,-0.00033264,-0.0002180
 8,-0.00007804,0.00063097,-0.00009904,-0.00016953,0.00003456,-0.0000836
 5,-0.00001179,0.00002268,0.00020987,-0.00000721,0.00002702,-0.00001202
 ,-0.00000557,0.00007554,0.00005772,-0.00011637,-0.00006614,0.00003274,
 0.00026188,-0.00010186,0.00011214,-0.00017802,0.00021216,-0.00002819,0
 .00001314,-0.00012117,0.00005627,0.00004072,-0.00016485,0.00001759,-0.
 00000923,0.00002710,-0.00003302,-0.00005230,-0.00011294,-0.00004080,-0
 .00001059,-0.00000157,0.00000918,-0.00001034,0.00014836,0.00091755,0.0
 0024142,-0.00033090,-0.00046024,-0.00005961,0.00035508,-0.00039607,-0.
 00004001,-0.00007067,-0.00019712,0.00000481,0.00002230,-0.00001236,-0.
 00001875,-0.00000108,0.00001196,0.00000216,-0.00001222,0.00000778,0.00
 000689,0.00004276,-0.00001727,0.00001370,-0.00002049,-0.00000364,-0.00
 000085,0.00003260,0.00003307,0.00001821,-0.12163388,0.21110001,-0.0001
 4284,-0.00040840,0.00027911,-0.00016604,0.00017148,0.00007325,0.000376
 71,0.00005440,-0.00069688,0.00015143,0.00021628,-0.00020013,0.00006348
 ,0.00020459,-0.00008983,0.00204551,-0.00051654,0.00062271,0.00395744,-
 0.00359616,-0.00356259,-0.00475557,-0.00165249,-0.00038483,-0.00460342
 ,0.00078332,-0.00222824,0.13991099,-0.21983227,-0.23981302,0.00148587,
 0.00019722,0.00052409,0.00028127,-0.00032814,-0.00015075,-0.00003785,-
 0.00001524,0.00008058,0.00007442,-0.00014472,0.00005533,-0.00003047,0.
 00001619,0.00001805,0.00001764,-0.00025891,-0.00010580,0.00019434,-0.0
 0020671,-0.00020394,0.00008477,-0.00005787,0.00035475,0.00014505,-0.00
 006320,-0.00000535,-0.00008847,0.00006016,0.00003284,-0.00010445,0.000
 05510,-0.00000723,0.00003934,-0.00001866,-0.00004070,-0.00010155,0.000
 03550,-0.00004941,-0.00007193,0.00003082,-0.00002985,0.00064428,-0.000
 45290,-0.00004395,-0.00016287,0.00011834,0.00004456,-0.00111716,0.0002
 0329,-0.00014718,-0.00027159,0.00005049,0.00006227,0.00001370,-0.00002
 023,-0.00000645,0.00000713,-0.00000706,0.00000574,-0.00001512,0.000006
 11,0.00000862,-0.00000876,-0.00000025,0.00003985,-0.00003708,0.0000191
 4,0.00000748,0.00002290,0.00001477,0.00009675,-0.13787125,0.22530593,0
 .24546982,-0.00013846,-0.00017363,0.00002580,-0.00006558,-0.00003608,0
 .00000267,-0.00005694,0.00008274,0.00005507,0.00007702,0.00013869,-0.0
 0006241,0.00012298,0.00012517,0.00000449,0.00004343,-0.00000247,-0.000
 00897,-0.00066251,-0.00163534,-0.00003179,0.00188809,0.00116626,0.0001
 7069,0.00004352,0.00052900,-0.00000646,0.00039534,0.00026588,-0.000057
 99,-0.00278318,-0.00029204,-0.00031574,-0.00030960,-0.00012386,-0.0003
 3691,-0.00000396,-0.00004256,0.00002071,0.00001673,0.00001262,-0.00000
 888,-0.00000301,0.00000571,0.00000025,-0.00001044,-0.00002050,-0.00000
 933,-0.00003933,-0.00005899,-0.00004454,-0.00000742,0.00002258,0.00001
 696,0.00029892,-0.00038621,-0.00042157,-0.00026692,0.00019125,0.000193
 90,-0.00009375,0.00013411,0.00011927,-0.00014360,0.00026221,0.00009219
 ,-0.00025445,0.00001631,-0.00011357,-0.00112563,0.00038937,0.00068942,
 -0.01186698,-0.03598092,0.00564218,-0.00432764,-0.00155519,0.00000218,
 0.00561991,0.00379437,-0.00225859,-0.03139823,-0.05221562,0.01145912,0
 .00004788,-0.00002642,-0.00004164,0.00034582,-0.00052527,0.00021652,0.
 00008880,0.00013450,-0.00006759,0.00007379,0.00002140,0.00003306,0.000
 04385,0.00007133,0.00004107,0.00016859,-0.00015572,0.00033526,-0.00012
 307,-0.00001418,0.00007013,0.04440603,-0.00038378,-0.00021649,-0.00005
 487,-0.00004177,-0.00009913,0.00007660,0.00022546,0.00003978,0.0000951
 2,0.00016854,0.00020300,-0.00007949,0.00029808,0.00020729,0.00003084,0
 .00002924,0.00005424,0.00001772,-0.00062733,-0.00005878,-0.00005921,0.
 00089855,0.00019140,0.00013211,0.00035824,-0.00006503,0.00000523,0.000
 34817,-0.00000233,-0.00004928,-0.00130698,0.00002369,-0.00025347,-0.00
 052375,-0.00060084,0.00010237,-0.00002104,-0.00005301,0.00003560,-0.00
 002242,-0.00002100,-0.00004819,0.00000476,0.00001763,-0.00000797,-0.00
 000343,0.00000243,-0.00000664,-0.00005489,0.00001398,-0.00005116,0.000
 02716,0.00000703,0.00000252,0.00022452,-0.00027910,-0.00018335,-0.0001
 9173,0.00018998,0.00012693,-0.00011781,0.00018805,0.00008602,0.0003151
 1,0.00012992,-0.00010597,-0.00011121,0.00017162,-0.00004294,0.00095607
 ,0.00083303,-0.00123876,-0.00593400,-0.00835719,0.00153673,0.00221043,
 0.00273610,0.00096226,0.00563046,-0.00295277,-0.00187341,-0.08817797,-
 0.50939923,0.04107718,0.00003626,-0.00005996,-0.00003632,-0.00005362,-
 0.00033724,0.00008687,-0.00003056,-0.00001886,0.00000999,-0.00005614,0
 .00006797,0.00004940,0.00008186,-0.00006692,0.00032157,0.00004075,0.00
 027797,-0.00024051,-0.00007670,0.00004113,0.00003664,0.08588148,0.5171
 9165,0.00013963,0.00008060,0.00003869,0.00000962,0.00004350,-0.0000405
 5,-0.00011742,-0.00004143,-0.00007857,-0.00005643,-0.00006809,0.000019
 81,-0.00008603,-0.00010085,-0.00001468,-0.00004596,-0.00006331,-0.0000
 3397,0.00035818,0.00050175,0.00014326,-0.00088821,-0.00040085,-0.00016
 063,-0.00014111,-0.00009921,0.00004083,-0.00016425,-0.00009436,-0.0000
 1394,0.00131826,0.00002952,0.00017368,-0.00012734,0.00042699,-0.000314
 30,0.00000406,0.00002054,-0.00000576,-0.00000921,-0.00001142,0.0000482
 1,-0.00000633,-0.00001017,0.00000696,0.00000132,0.00000204,0.00000610,
 -0.00000983,-0.00003912,0.00007576,-0.00002454,-0.00001834,0.00000295,
 -0.00019767,0.00016395,0.00011904,0.00012870,-0.00005715,-0.00010138,0
 .00009951,-0.00009690,-0.00007374,-0.00013749,-0.00009090,0.00020272,-
 0.00001725,-0.00007990,-0.00019380,0.00459969,0.00025253,-0.00211418,0
 .00615997,0.01260976,-0.00166520,-0.00395242,-0.00276749,-0.00035193,-
 0.00354661,-0.00080289,-0.00144461,0.01232590,0.02990945,-0.00224399,-
 0.00002632,-0.00000460,0.00004780,0.00002809,0.00014733,-0.00008609,0.
 00001938,0.00003051,-0.00000748,-0.00004662,0.00009024,0.00001646,-0.0
 0005670,0.00017454,0.00001757,-0.00018043,0.00082472,-0.00084607,0.000
 05083,-0.00000081,-0.00000966,-0.01540496,-0.04046015,0.00884068\\0.00
 001338,0.00001039,0.00000124,-0.00000091,0.00000060,-0.00000322,-0.000
 00812,-0.00000021,-0.00001229,-0.00000074,-0.00000918,-0.00000407,-0.0
 0001123,-0.00000099,0.00000059,0.00000408,-0.00000917,0.00000290,-0.00
 000289,0.00001814,-0.00000561,-0.00002088,-0.00001664,0.00000782,0.000
 00048,-0.00000193,0.00000749,-0.00000542,0.00000609,-0.00001516,0.0000
 2134,0.00000512,-0.00000223,0.00001497,0.00000575,0.00000066,0.0000011
 6,-0.00000033,-0.00000204,0.00000088,0.00000464,0.00000069,0.00000174,
 -0.00000025,-0.00000094,0.00000193,0.00000117,0.00000143,-0.00000059,-
 0.00000082,-0.00000187,-0.00000282,0.00000178,0.00000498,-0.00001608,-
 0.00000120,-0.00000488,0.00000529,-0.00000194,-0.00000139,0.00001186,0
 .00000293,0.00000309,0.00000822,0.00000009,0.00001019,0.00001261,-0.00
 000333,-0.00000132,-0.00000251,0.00000274,0.00000495,0.00001519,-0.000
 00555,0.00000312,-0.00001713,-0.00000785,0.00000653,-0.00000782,0.0000
 0289,-0.00000179,-0.00000634,0.00000028,-0.00000579,0.00000060,0.00000
 320,-0.00000115,-0.00000464,0.00000235,-0.00000312,-0.00000115,0.00000
 180,-0.00000135,-0.00000556,0.00000052,-0.00000159,-0.00000040,0.00000
 031,-0.00000154,-0.00000084,-0.00000195,-0.00000114,0.00000288,-0.0000
 1073,0.00000956,-0.00000054,0.00000130,0.00000724\\\@
 The archive entry for this job was punched.


 THERE IS NOTHING NOBLE IN BEING SUPERIOR TO SOME OTHER MAN.
 TRUE NOBILITY IS BEING SUPERIOR TO YOUR FORMER SELF.

                                                   -- HINDU PROVERB
 Job cpu time:       2 days 20 hours 50 minutes 34.3 seconds.
 Elapsed time:       0 days  1 hours 56 minutes  4.5 seconds.
 File lengths (MBytes):  RWF=   3421 Int=      0 D2E=      0 Chk=     65 Scr=      1
 Normal termination of Gaussian 16 at Mon Jul 29 21:30:09 2024.
