 Entering Gaussian System, Link 0=g16
 Initial command:
 /apps/gaussian/g16c01/g16/l1.exe "/jobfs/121947498.gadi-pbs/Gau-2477732.inp" -scrdir="/jobfs/121947498.gadi-pbs/"
 Entering Link 1 = /apps/gaussian/g16c01/g16/l1.exe PID=   2477734.
  
 Copyright (c) 1988-2019, Gaussian, Inc.  All Rights Reserved.
  
 This is part of the Gaussian(R) 16 program.  It is based on
 the Gaussian(R) 09 system (copyright 2009, Gaussian, Inc.),
 the Gaussian(R) 03 system (copyright 2003, Gaussian, Inc.),
 the Gaussian(R) 98 system (copyright 1998, Gaussian, Inc.),
 the Gaussian(R) 94 system (copyright 1995, Gaussian, Inc.),
 the Gaussian 92(TM) system (copyright 1992, Gaussian, Inc.),
 the Gaussian 90(TM) system (copyright 1990, Gaussian, Inc.),
 the Gaussian 88(TM) system (copyright 1988, Gaussian, Inc.),
 the Gaussian 86(TM) system (copyright 1986, Carnegie Mellon
 University), and the Gaussian 82(TM) system (copyright 1983,
 Carnegie Mellon University). Gaussian is a federally registered
 trademark of Gaussian, Inc.
  
 This software contains proprietary and confidential information,
 including trade secrets, belonging to Gaussian, Inc.
  
 This software is provided under written license and may be
 used, copied, transmitted, or stored only in accord with that
 written license.
  
 The following legend is applicable only to US Government
 contracts under FAR:
  
                    RESTRICTED RIGHTS LEGEND
  
 Use, reproduction and disclosure by the US Government is
 subject to restrictions as set forth in subparagraphs (a)
 and (c) of the Commercial Computer Software - Restricted
 Rights clause in FAR 52.227-19.
  
 Gaussian, Inc.
 340 Quinnipiac St., Bldg. 40, Wallingford CT 06492
  
  
 ---------------------------------------------------------------
 Warning -- This program may not be used in any manner that
 competes with the business of Gaussian, Inc. or will provide
 assistance to any competitor of Gaussian, Inc.  The licensee
 of this program is prohibited from giving any competitor of
 Gaussian, Inc. access to this program.  By using this program,
 the user acknowledges that Gaussian, Inc. is engaged in the
 business of creating and licensing software in the field of
 computational chemistry and represents and warrants to the
 licensee that it is not a competitor of Gaussian, Inc. and that
 it will not use this program in any manner prohibited above.
 ---------------------------------------------------------------
  

 Cite this work as:
 Gaussian 16, Revision C.01,
 M. J. Frisch, G. W. Trucks, H. B. Schlegel, G. E. Scuseria, 
 M. A. Robb, J. R. Cheeseman, G. Scalmani, V. Barone, 
 G. A. Petersson, H. Nakatsuji, X. Li, M. Caricato, A. V. Marenich, 
 J. Bloino, B. G. Janesko, R. Gomperts, B. Mennucci, H. P. Hratchian, 
 J. V. Ortiz, A. F. Izmaylov, J. L. Sonnenberg, D. Williams-Young, 
 F. Ding, F. Lipparini, F. Egidi, J. Goings, B. Peng, A. Petrone, 
 T. Henderson, D. Ranasinghe, V. G. Zakrzewski, J. Gao, N. Rega, 
 G. Zheng, W. Liang, M. Hada, M. Ehara, K. Toyota, R. Fukuda, 
 J. Hasegawa, M. Ishida, T. Nakajima, Y. Honda, O. Kitao, H. Nakai, 
 T. Vreven, K. Throssell, J. A. Montgomery, Jr., J. E. Peralta, 
 F. Ogliaro, M. J. Bearpark, J. J. Heyd, E. N. Brothers, K. N. Kudin, 
 V. N. Staroverov, T. A. Keith, R. Kobayashi, J. Normand, 
 K. Raghavachari, A. P. Rendell, J. C. Burant, S. S. Iyengar, 
 J. Tomasi, M. Cossi, J. M. Millam, M. Klene, C. Adamo, R. Cammi, 
 J. W. Ochterski, R. L. Martin, K. Morokuma, O. Farkas, 
 J. B. Foresman, and D. J. Fox, Gaussian, Inc., Wallingford CT, 2019.
 
 ******************************************
 Gaussian 16:  ES64L-G16RevC.01  3-Jul-2019
                29-Jul-2024 
 ******************************************
 %mem=60gb
 %nprocs=48
 Will use up to   48 processors via shared memory.
 %RWF=/scratch/gy60/or4187/rwf/gasphase_globalmin_actual_mgdimer.rwf
 %NoSave
 %Chk=gasphase_globalmin_actual_mgdimer.chk
 ----------------------------------------------------------------------
 #UM06/Def2TZVP OPT Freq=Noraman INT(grid=ultrafine) EmpiricalDispersio
 n=GD3 SCF=XQC Pop=NPA
 ----------------------------------------------------------------------
 1/18=20,19=15,26=4,38=1/1,3;
 2/9=110,12=2,17=6,18=5,40=1/2;
 3/5=44,7=101,11=2,25=1,30=1,71=1,74=-54,75=-5,116=2,124=31/1,2,3;
 4//1;
 5/5=2,8=3,13=1,38=5/2,8;
 6/7=2,8=2,9=2,10=2,28=1,40=-1/1,7;
 7//1,2,3,16;
 1/18=20,19=15,26=4/3(2);
 2/9=110/2;
 99//99;
 2/9=110/2;
 3/5=44,7=101,11=2,25=1,30=1,71=1,74=-54,75=-5,116=2,124=31/1,2,3;
 4/5=5,16=3,69=1/1;
 5/5=2,8=3,13=1,38=5/2,8;
 7//1,2,3,16;
 1/18=20,19=15,26=4/3(-5);
 2/9=110/2;
 6/7=2,8=2,9=2,10=2,19=2,28=1,40=-1/1,7;
 99/9=1/99;
 -----------------------------------------
 gasphase_globalmin_actual_mgdimer.optfreq
 -----------------------------------------
 Symbolic Z-matrix:
 Charge =  1 Multiplicity = 1
 C                    -2.41756  -2.31488   0.19164 
 C                    -2.83401  -1.40953  -0.95223 
 N                    -1.68616  -0.62667  -1.44259 
 O                    -3.38677  -3.12194   0.58689 
 O                    -1.30275  -2.29939   0.7059 
 C                    -1.93968   0.83067  -1.55881 
 P                    -1.86045   1.59532   0.11496 
 O                    -1.30446   3.05482   0.04371 
 O                    -1.10678   0.63119   1.01697 
 O                    -3.41371   1.75248   0.50172 
 H                    -0.25375   3.12322   0.01035 
 Mg                    0.01803  -0.78364   0.0547 
 H                    -3.0824   -3.66585   1.34094 
 H                    -1.3944   -0.97477  -2.35429 
 H                    -3.2925   -2.02099  -1.73718 
 H                    -3.62451  -0.75172  -0.57244 
 H                    -1.12087   1.26464  -2.13674 
 H                    -2.89116   1.06644  -2.04898 
 C                     2.42113  -2.31547  -0.16997 
 O                     3.37893  -3.11815  -0.60013 
 O                     1.26762  -2.35969  -0.59225 
 C                     2.89827  -1.3332    0.87985 
 N                     1.7628   -0.59112   1.46088 
 C                     1.98595   0.87936   1.53634 
 P                     1.81539   1.63429  -0.15002 
 O                     1.0587    0.58036  -0.97324 
 O                     1.22145   3.0279   -0.05881 
 O                     3.34765   1.70888  -0.68663 
 H                     3.03323  -3.7038   -1.30316 
 H                     3.59212  -0.64711   0.37989 
 H                     3.48233  -1.87171   1.63417 
 H                     1.58031  -0.93903   2.40119 
 H                     2.9522    1.13527   1.98604 
 H                     1.18889   1.30161   2.15187 
 H                    -3.60928   2.45248   1.15 
 H                     3.60541   2.60548  -0.96253 
 

 GradGradGradGradGradGradGradGradGradGradGradGradGradGradGradGradGradGrad
 Berny optimization.
 Initialization pass.
                           ----------------------------
                           !    Initial Parameters    !
                           ! (Angstroms and Degrees)  !
 --------------------------                            --------------------------
 ! Name  Definition              Value          Derivative Info.                !
 --------------------------------------------------------------------------------
 ! R1    R(1,2)                  1.5171         estimate D2E/DX2                !
 ! R2    R(1,4)                  1.3217         estimate D2E/DX2                !
 ! R3    R(1,5)                  1.2278         estimate D2E/DX2                !
 ! R4    R(2,3)                  1.4734         estimate D2E/DX2                !
 ! R5    R(2,15)                 1.0956         estimate D2E/DX2                !
 ! R6    R(2,16)                 1.0963         estimate D2E/DX2                !
 ! R7    R(3,6)                  1.4838         estimate D2E/DX2                !
 ! R8    R(3,14)                 1.0186         estimate D2E/DX2                !
 ! R9    R(4,13)                 0.9783         estimate D2E/DX2                !
 ! R10   R(6,7)                  1.8419         estimate D2E/DX2                !
 ! R11   R(6,17)                 1.0921         estimate D2E/DX2                !
 ! R12   R(6,18)                 1.096          estimate D2E/DX2                !
 ! R13   R(7,8)                  1.5634         estimate D2E/DX2                !
 ! R14   R(7,9)                  1.5203         estimate D2E/DX2                !
 ! R15   R(7,10)                 1.6084         estimate D2E/DX2                !
 ! R16   R(8,11)                 1.0535         estimate D2E/DX2                !
 ! R17   R(9,12)                 2.0477         estimate D2E/DX2                !
 ! R18   R(10,35)                0.9739         estimate D2E/DX2                !
 ! R19   R(12,23)                2.2491         estimate D2E/DX2                !
 ! R20   R(12,26)                2.0            estimate D2E/DX2                !
 ! R21   R(19,20)                1.3216         estimate D2E/DX2                !
 ! R22   R(19,21)                1.2292         estimate D2E/DX2                !
 ! R23   R(19,22)                1.5148         estimate D2E/DX2                !
 ! R24   R(20,29)                0.9781         estimate D2E/DX2                !
 ! R25   R(22,23)                1.4757         estimate D2E/DX2                !
 ! R26   R(22,30)                1.0964         estimate D2E/DX2                !
 ! R27   R(22,31)                1.0955         estimate D2E/DX2                !
 ! R28   R(23,24)                1.4892         estimate D2E/DX2                !
 ! R29   R(23,32)                1.0191         estimate D2E/DX2                !
 ! R30   R(24,25)                1.8555         estimate D2E/DX2                !
 ! R31   R(24,33)                1.0961         estimate D2E/DX2                !
 ! R32   R(24,34)                1.092          estimate D2E/DX2                !
 ! R33   R(25,26)                1.5366         estimate D2E/DX2                !
 ! R34   R(25,27)                1.5176         estimate D2E/DX2                !
 ! R35   R(25,28)                1.6252         estimate D2E/DX2                !
 ! R36   R(28,36)                0.9729         estimate D2E/DX2                !
 ! A1    A(2,1,4)              112.866          estimate D2E/DX2                !
 ! A2    A(2,1,5)              123.8845         estimate D2E/DX2                !
 ! A3    A(4,1,5)              123.2482         estimate D2E/DX2                !
 ! A4    A(1,2,3)              110.7424         estimate D2E/DX2                !
 ! A5    A(1,2,15)             108.7857         estimate D2E/DX2                !
 ! A6    A(1,2,16)             107.1464         estimate D2E/DX2                !
 ! A7    A(3,2,15)             112.5898         estimate D2E/DX2                !
 ! A8    A(3,2,16)             110.992          estimate D2E/DX2                !
 ! A9    A(15,2,16)            106.34           estimate D2E/DX2                !
 ! A10   A(2,3,6)              114.508          estimate D2E/DX2                !
 ! A11   A(2,3,14)             109.8442         estimate D2E/DX2                !
 ! A12   A(6,3,14)             108.33           estimate D2E/DX2                !
 ! A13   A(1,4,13)             109.9886         estimate D2E/DX2                !
 ! A14   A(3,6,7)              109.2218         estimate D2E/DX2                !
 ! A15   A(3,6,17)             107.6754         estimate D2E/DX2                !
 ! A16   A(3,6,18)             113.2445         estimate D2E/DX2                !
 ! A17   A(7,6,17)             106.479          estimate D2E/DX2                !
 ! A18   A(7,6,18)             110.7603         estimate D2E/DX2                !
 ! A19   A(17,6,18)            109.1917         estimate D2E/DX2                !
 ! A20   A(6,7,8)              111.1884         estimate D2E/DX2                !
 ! A21   A(6,7,9)              107.2903         estimate D2E/DX2                !
 ! A22   A(6,7,10)             102.565          estimate D2E/DX2                !
 ! A23   A(8,7,9)              116.2801         estimate D2E/DX2                !
 ! A24   A(8,7,10)             105.259          estimate D2E/DX2                !
 ! A25   A(9,7,10)             113.4566         estimate D2E/DX2                !
 ! A26   A(7,8,11)             114.6302         estimate D2E/DX2                !
 ! A27   A(7,9,12)             115.5751         estimate D2E/DX2                !
 ! A28   A(7,10,35)            115.1013         estimate D2E/DX2                !
 ! A29   A(9,12,23)             94.1969         estimate D2E/DX2                !
 ! A30   A(9,12,26)             93.2178         estimate D2E/DX2                !
 ! A31   A(23,12,26)            81.9125         estimate D2E/DX2                !
 ! A32   A(20,19,21)           123.1226         estimate D2E/DX2                !
 ! A33   A(20,19,22)           113.0242         estimate D2E/DX2                !
 ! A34   A(21,19,22)           123.85           estimate D2E/DX2                !
 ! A35   A(19,20,29)           109.9648         estimate D2E/DX2                !
 ! A36   A(19,22,23)           110.8911         estimate D2E/DX2                !
 ! A37   A(19,22,30)           106.8031         estimate D2E/DX2                !
 ! A38   A(19,22,31)           109.0494         estimate D2E/DX2                !
 ! A39   A(23,22,30)           110.5975         estimate D2E/DX2                !
 ! A40   A(23,22,31)           112.726          estimate D2E/DX2                !
 ! A41   A(30,22,31)           106.511          estimate D2E/DX2                !
 ! A42   A(12,23,22)           107.9209         estimate D2E/DX2                !
 ! A43   A(12,23,24)           103.4408         estimate D2E/DX2                !
 ! A44   A(12,23,32)           114.1262         estimate D2E/DX2                !
 ! A45   A(22,23,24)           113.6534         estimate D2E/DX2                !
 ! A46   A(22,23,32)           109.2331         estimate D2E/DX2                !
 ! A47   A(24,23,32)           108.4917         estimate D2E/DX2                !
 ! A48   A(23,24,25)           109.9935         estimate D2E/DX2                !
 ! A49   A(23,24,33)           112.5462         estimate D2E/DX2                !
 ! A50   A(23,24,34)           107.518          estimate D2E/DX2                !
 ! A51   A(25,24,33)           111.0338         estimate D2E/DX2                !
 ! A52   A(25,24,34)           106.7307         estimate D2E/DX2                !
 ! A53   A(33,24,34)           108.7787         estimate D2E/DX2                !
 ! A54   A(24,25,26)           104.6624         estimate D2E/DX2                !
 ! A55   A(24,25,27)           110.7914         estimate D2E/DX2                !
 ! A56   A(24,25,28)           103.4205         estimate D2E/DX2                !
 ! A57   A(26,25,27)           117.9894         estimate D2E/DX2                !
 ! A58   A(26,25,28)           108.5947         estimate D2E/DX2                !
 ! A59   A(27,25,28)           110.284          estimate D2E/DX2                !
 ! A60   A(12,26,25)           116.657          estimate D2E/DX2                !
 ! A61   A(25,28,36)           112.6896         estimate D2E/DX2                !
 ! D1    D(4,1,2,3)           -174.4268         estimate D2E/DX2                !
 ! D2    D(4,1,2,15)           -50.1849         estimate D2E/DX2                !
 ! D3    D(4,1,2,16)            64.3933         estimate D2E/DX2                !
 ! D4    D(5,1,2,3)              5.9858         estimate D2E/DX2                !
 ! D5    D(5,1,2,15)           130.2277         estimate D2E/DX2                !
 ! D6    D(5,1,2,16)          -115.1941         estimate D2E/DX2                !
 ! D7    D(2,1,4,13)          -178.2962         estimate D2E/DX2                !
 ! D8    D(5,1,4,13)             1.2942         estimate D2E/DX2                !
 ! D9    D(1,2,3,6)           -129.8434         estimate D2E/DX2                !
 ! D10   D(1,2,3,14)           108.0174         estimate D2E/DX2                !
 ! D11   D(15,2,3,6)           108.1154         estimate D2E/DX2                !
 ! D12   D(15,2,3,14)          -14.0238         estimate D2E/DX2                !
 ! D13   D(16,2,3,6)           -10.9637         estimate D2E/DX2                !
 ! D14   D(16,2,3,14)         -133.1029         estimate D2E/DX2                !
 ! D15   D(2,3,6,7)             77.5714         estimate D2E/DX2                !
 ! D16   D(2,3,6,17)          -167.1891         estimate D2E/DX2                !
 ! D17   D(2,3,6,18)           -46.3673         estimate D2E/DX2                !
 ! D18   D(14,3,6,7)          -159.4685         estimate D2E/DX2                !
 ! D19   D(14,3,6,17)          -44.229          estimate D2E/DX2                !
 ! D20   D(14,3,6,18)           76.5928         estimate D2E/DX2                !
 ! D21   D(3,6,7,8)            147.2773         estimate D2E/DX2                !
 ! D22   D(3,6,7,9)             19.1069         estimate D2E/DX2                !
 ! D23   D(3,6,7,10)          -100.662          estimate D2E/DX2                !
 ! D24   D(17,6,7,8)            31.2714         estimate D2E/DX2                !
 ! D25   D(17,6,7,9)           -96.8989         estimate D2E/DX2                !
 ! D26   D(17,6,7,10)          143.3322         estimate D2E/DX2                !
 ! D27   D(18,6,7,8)           -87.3323         estimate D2E/DX2                !
 ! D28   D(18,6,7,9)           144.4973         estimate D2E/DX2                !
 ! D29   D(18,6,7,10)           24.7284         estimate D2E/DX2                !
 ! D30   D(6,7,8,11)           -82.5734         estimate D2E/DX2                !
 ! D31   D(9,7,8,11)            40.5829         estimate D2E/DX2                !
 ! D32   D(10,7,8,11)          167.0863         estimate D2E/DX2                !
 ! D33   D(6,7,9,12)            18.1141         estimate D2E/DX2                !
 ! D34   D(8,7,9,12)          -107.0478         estimate D2E/DX2                !
 ! D35   D(10,7,9,12)          130.6607         estimate D2E/DX2                !
 ! D36   D(6,7,10,35)         -155.1997         estimate D2E/DX2                !
 ! D37   D(8,7,10,35)          -38.7994         estimate D2E/DX2                !
 ! D38   D(9,7,10,35)           89.4184         estimate D2E/DX2                !
 ! D39   D(7,9,12,23)          138.1068         estimate D2E/DX2                !
 ! D40   D(7,9,12,26)           55.9904         estimate D2E/DX2                !
 ! D41   D(9,12,23,22)        -169.3743         estimate D2E/DX2                !
 ! D42   D(9,12,23,24)         -48.6557         estimate D2E/DX2                !
 ! D43   D(9,12,23,32)          69.0123         estimate D2E/DX2                !
 ! D44   D(26,12,23,22)        -76.7136         estimate D2E/DX2                !
 ! D45   D(26,12,23,24)         44.005          estimate D2E/DX2                !
 ! D46   D(26,12,23,32)        161.673          estimate D2E/DX2                !
 ! D47   D(9,12,26,25)          57.4292         estimate D2E/DX2                !
 ! D48   D(23,12,26,25)        -36.3577         estimate D2E/DX2                !
 ! D49   D(21,19,20,29)          1.9543         estimate D2E/DX2                !
 ! D50   D(22,19,20,29)       -177.4167         estimate D2E/DX2                !
 ! D51   D(20,19,22,23)       -172.1318         estimate D2E/DX2                !
 ! D52   D(20,19,22,30)         67.2968         estimate D2E/DX2                !
 ! D53   D(20,19,22,31)        -47.4333         estimate D2E/DX2                !
 ! D54   D(21,19,22,23)          8.5024         estimate D2E/DX2                !
 ! D55   D(21,19,22,30)       -112.0689         estimate D2E/DX2                !
 ! D56   D(21,19,22,31)        133.201          estimate D2E/DX2                !
 ! D57   D(19,22,23,12)        -18.5244         estimate D2E/DX2                !
 ! D58   D(19,22,23,24)       -132.6254         estimate D2E/DX2                !
 ! D59   D(19,22,23,32)        106.0734         estimate D2E/DX2                !
 ! D60   D(30,22,23,12)         99.7701         estimate D2E/DX2                !
 ! D61   D(30,22,23,24)        -14.3309         estimate D2E/DX2                !
 ! D62   D(30,22,23,32)       -135.6321         estimate D2E/DX2                !
 ! D63   D(31,22,23,12)       -141.1142         estimate D2E/DX2                !
 ! D64   D(31,22,23,24)        104.7848         estimate D2E/DX2                !
 ! D65   D(31,22,23,32)        -16.5164         estimate D2E/DX2                !
 ! D66   D(12,23,24,25)        -41.5345         estimate D2E/DX2                !
 ! D67   D(12,23,24,33)       -165.9088         estimate D2E/DX2                !
 ! D68   D(12,23,24,34)         74.3194         estimate D2E/DX2                !
 ! D69   D(22,23,24,25)         75.2132         estimate D2E/DX2                !
 ! D70   D(22,23,24,33)        -49.1612         estimate D2E/DX2                !
 ! D71   D(22,23,24,34)       -168.9329         estimate D2E/DX2                !
 ! D72   D(32,23,24,25)       -163.0724         estimate D2E/DX2                !
 ! D73   D(32,23,24,33)         72.5532         estimate D2E/DX2                !
 ! D74   D(32,23,24,34)        -47.2185         estimate D2E/DX2                !
 ! D75   D(23,24,25,26)         17.9767         estimate D2E/DX2                !
 ! D76   D(23,24,25,27)        146.1646         estimate D2E/DX2                !
 ! D77   D(23,24,25,28)        -95.6821         estimate D2E/DX2                !
 ! D78   D(33,24,25,26)        143.2207         estimate D2E/DX2                !
 ! D79   D(33,24,25,27)        -88.5914         estimate D2E/DX2                !
 ! D80   D(33,24,25,28)         29.5619         estimate D2E/DX2                !
 ! D81   D(34,24,25,26)        -98.3723         estimate D2E/DX2                !
 ! D82   D(34,24,25,27)         29.8156         estimate D2E/DX2                !
 ! D83   D(34,24,25,28)        147.9689         estimate D2E/DX2                !
 ! D84   D(24,25,26,12)         20.4096         estimate D2E/DX2                !
 ! D85   D(27,25,26,12)       -103.2718         estimate D2E/DX2                !
 ! D86   D(28,25,26,12)        130.3564         estimate D2E/DX2                !
 ! D87   D(24,25,28,36)       -125.3203         estimate D2E/DX2                !
 ! D88   D(26,25,28,36)        123.8961         estimate D2E/DX2                !
 ! D89   D(27,25,28,36)         -6.8144         estimate D2E/DX2                !
 --------------------------------------------------------------------------------
 Trust Radius=3.00D-01 FncErr=1.00D-07 GrdErr=1.00D-06 EigMax=2.50D+02 EigMin=1.00D-04
 Number of steps in this run=    196 maximum allowed number of steps=    216.
 GradGradGradGradGradGradGradGradGradGradGradGradGradGradGradGradGradGrad

                          Input orientation:                          
 ---------------------------------------------------------------------
 Center     Atomic      Atomic             Coordinates (Angstroms)
 Number     Number       Type             X           Y           Z
 ---------------------------------------------------------------------
      1          6           0       -2.417557   -2.314882    0.191644
      2          6           0       -2.834005   -1.409529   -0.952230
      3          7           0       -1.686158   -0.626672   -1.442590
      4          8           0       -3.386768   -3.121942    0.586887
      5          8           0       -1.302752   -2.299395    0.705896
      6          6           0       -1.939678    0.830670   -1.558811
      7         15           0       -1.860455    1.595325    0.114957
      8          8           0       -1.304456    3.054815    0.043710
      9          8           0       -1.106780    0.631193    1.016967
     10          8           0       -3.413708    1.752481    0.501718
     11          1           0       -0.253754    3.123223    0.010348
     12         12           0        0.018027   -0.783637    0.054705
     13          1           0       -3.082400   -3.665848    1.340944
     14          1           0       -1.394397   -0.974767   -2.354289
     15          1           0       -3.292497   -2.020994   -1.737182
     16          1           0       -3.624514   -0.751721   -0.572441
     17          1           0       -1.120868    1.264640   -2.136740
     18          1           0       -2.891164    1.066444   -2.048984
     19          6           0        2.421129   -2.315469   -0.169970
     20          8           0        3.378927   -3.118153   -0.600128
     21          8           0        1.267618   -2.359695   -0.592246
     22          6           0        2.898274   -1.333204    0.879853
     23          7           0        1.762796   -0.591120    1.460878
     24          6           0        1.985945    0.879358    1.536344
     25         15           0        1.815391    1.634289   -0.150016
     26          8           0        1.058697    0.580363   -0.973244
     27          8           0        1.221445    3.027896   -0.058809
     28          8           0        3.347647    1.708879   -0.686629
     29          1           0        3.033230   -3.703799   -1.303156
     30          1           0        3.592115   -0.647107    0.379893
     31          1           0        3.482328   -1.871710    1.634166
     32          1           0        1.580310   -0.939027    2.401195
     33          1           0        2.952203    1.135269    1.986036
     34          1           0        1.188892    1.301613    2.151872
     35          1           0       -3.609280    2.452483    1.150000
     36          1           0        3.605414    2.605483   -0.962531
 ---------------------------------------------------------------------
                    Distance matrix (angstroms):
                    1          2          3          4          5
     1  C    0.000000
     2  C    1.517083   0.000000
     3  N    2.460837   1.473388   0.000000
     4  O    1.321716   2.367865   3.638299   0.000000
     5  O    1.227796   2.426103   2.749726   2.243629   0.000000
     6  C    3.631385   2.487218   1.483788   4.724535   3.915594
     7  P    3.950439   3.334042   2.719118   4.980458   3.978578
     8  O    5.485848   4.823047   3.988500   6.540902   5.395003
     9  O    3.328461   3.320480   2.822645   4.412407   2.953560
    10  O    4.199036   3.528218   3.524930   4.875241   4.573348
    11  H    5.855587   5.303781   4.269019   7.010725   5.566773
    12  Mg   2.880196   3.088648   2.273934   4.164555   2.113298
    13  H    1.894206   3.226658   4.351338   0.978302   2.331872
    14  H    3.053611   2.056030   1.018572   4.150954   3.335831
    15  H    2.138284   1.095560   2.147380   2.573377   3.163102
    16  H    2.117557   1.096292   2.128384   2.649248   3.069205
    17  H    4.462707   3.389556   2.092477   5.638666   4.562456
    18  H    4.083881   2.708612   2.164809   4.973532   4.630474
    19  C    4.852179   5.389721   4.619675   5.912266   3.825531
    20  O    5.905199   6.453208   5.707215   6.869036   4.928913
    21  O    3.767891   4.225602   3.528632   4.861551   2.880210
    22  C    5.449346   6.018419   5.187479   6.541189   4.314209
    23  N    4.696558   5.255802   4.508511   5.804044   3.589677
    24  C    5.603768   5.887608   4.962511   6.765938   4.648617
    25  P    5.799184   5.614736   4.363890   7.087116   5.092079
    26  O    4.671590   4.371870   3.035037   5.991930   4.085212
    27  O    6.469184   6.077468   4.870819   7.711878   5.944441
    28  O    7.085167   6.928769   5.600488   8.385167   6.295363
    29  H    5.820188   6.309617   5.635670   6.717678   4.980902
    30  H    6.239637   6.606880   5.584087   7.407595   5.176491
    31  H    6.089821   6.840988   6.142458   7.060054   4.893015
    32  H    4.770538   5.563543   5.053915   5.720900   3.610635
    33  H    6.630061   6.970625   6.031111   7.762990   5.616077
    34  H    5.470649   5.759291   4.990426   6.553905   4.611549
    35  H    5.006638   4.464926   4.461067   5.607212   5.300721
    36  H    7.862461   7.588580   6.219165   9.170317   7.136636
                    6          7          8          9         10
     6  C    0.000000
     7  P    1.841866   0.000000
     8  O    2.813965   1.563433   0.000000
     9  O    2.714432   1.520262   2.619208   0.000000
    10  O    2.695974   1.608377   2.520871   2.616235   0.000000
    11  H    3.249676   2.219662   1.053455   2.819778   3.479322
    12  Mg   3.006996   3.031795   4.059901   2.047652   4.290514
    13  H    5.471112   5.538604   7.071861   4.740527   5.492937
    14  H    2.046881   3.594407   4.689992   3.745290   4.435344
    15  H    3.161317   4.308007   5.734781   4.404178   4.389359
    16  H    2.513077   3.015468   4.500225   3.282933   2.732998
    17  H    1.092146   2.393007   2.827153   3.216725   3.529386
    18  H    1.095986   2.454530   3.294029   3.574007   2.692541
    19  C    5.553711   5.805811   6.539540   4.747396   7.144557
    20  O    6.693268   7.083738   7.775226   6.065819   8.430719
    21  O    4.625951   5.091871   6.028011   4.144000   6.326259
    22  C    5.833970   5.639755   6.133252   4.462971   7.036018
    23  N    4.984808   4.440719   4.970839   3.150487   5.762694
    24  C    4.999286   4.162660   4.217500   3.145836   5.566781
    25  P    4.090360   3.685589   3.433492   3.302594   5.270882
    26  O    3.065256   3.276550   3.569538   2.941566   4.853017
    27  O    4.131647   3.403022   2.528124   3.510287   4.839991
    28  O    5.430263   5.270650   4.897652   4.889332   6.865128
    29  H    6.734729   7.351184   8.142999   6.427659   8.636641
    30  H    6.045091   5.901628   6.147654   4.911163   7.406377
    31  H    6.848073   6.547798   7.050780   5.263589   7.872262
    32  H    5.586035   4.846513   5.461720   3.406190   5.982678
    33  H    6.048902   5.184039   5.057314   4.203395   6.565742
    34  H    4.876361   3.678831   3.706055   2.647183   4.910215
    35  H    3.571485   2.205544   2.626575   3.097951   0.973921
    36  H    5.852654   5.661901   5.032022   5.479143   7.220783
                   11         12         13         14         15
    11  H    0.000000
    12  Mg   3.916553   0.000000
    13  H    7.474169   4.424273   0.000000
    14  H    4.866836   2.799057   4.872989   0.000000
    15  H    6.225013   3.962508   3.496361   2.253485   0.000000
    16  H    5.168835   3.696272   3.528040   2.863242   1.754397
    17  H    2.969209   3.208575   6.344416   2.266515   3.958663
    18  H    3.927737   4.038774   5.824326   2.549523   3.128987
    19  C    6.063570   2.858652   5.864743   4.596408   5.931979
    20  O    7.247332   4.144204   6.768787   5.518678   6.855986
    21  O    5.721894   2.112814   4.936184   3.479819   4.713835
    22  C    5.527301   3.046099   6.436015   5.386573   6.756298
    23  N    4.468428   2.249134   5.739709   4.966945   6.150455
    24  C    3.518501   2.972122   6.810668   5.477364   6.854922
    25  P    2.554212   3.019734   7.369041   4.687081   6.478480
    26  O    3.025908   2.000042   6.366667   3.216114   5.126748
    27  O    1.479893   3.998611   8.080136   5.304071   6.977385
    28  O    3.931442   4.224759   8.622311   5.698248   7.688116
    29  H    7.690110   4.411642   6.662854   5.306258   6.560109
    30  H    5.398394   3.591448   7.388204   5.696351   7.332629
    31  H    6.445499   3.959796   6.811796   6.363547   7.568786
    32  H    5.057847   2.823276   5.504593   5.609348   6.483907
    33  H    4.258340   4.002703   7.738430   6.494891   7.925946
    34  H    3.160002   3.180770   6.601303   5.671046   6.800536
    35  H    3.606696   4.982920   6.143943   5.378828   5.333682
    36  H    4.013444   5.038874   9.453171   6.305021   8.341795
                   16         17         18         19         20
    16  H    0.000000
    17  H    3.575051   0.000000
    18  H    2.454324   1.783516   0.000000
    19  C    6.257562   5.406580   6.571794   0.000000
    20  O    7.392493   6.466700   7.676202   1.321634   0.000000
    21  O    5.149653   4.607182   5.581754   1.229171   2.243424
    22  C    6.707759   5.657042   6.917657   1.514807   2.367998
    23  N    5.760493   4.970132   6.060197   2.463016   3.639439
    24  C    6.211654   4.826207   6.056052   3.647987   4.741835
    25  P    5.955170   3.564453   5.106876   3.995986   5.023241
    26  O    4.885443   2.563682   4.122487   3.299592   4.381974
    27  O    6.167061   3.593508   4.972086   5.477513   6.536182
    28  O    7.394499   4.718876   6.418060   4.161821   4.827908
    29  H    7.319444   6.529684   7.642638   1.893737   0.978130
    30  H    7.279946   5.674542   7.132223   2.111159   2.666825
    31  H    7.525337   6.726503   7.925891   2.139620   2.560543
    32  H    5.997315   5.722357   6.619674   3.035203   4.122081
    33  H    7.304775   5.796889   7.101483   4.103413   4.996192
    34  H    5.899740   4.871196   5.860831   4.471313   5.648370
    35  H    3.637851   4.290201   3.559536   7.800097   9.106589
    36  H    7.980905   5.051175   6.764211   5.123129   5.739567
                   21         22         23         24         25
    21  O    0.000000
    22  C    2.424829   0.000000
    23  N    2.754700   1.475666   0.000000
    24  C    3.941871   2.481684   1.489226   0.000000
    25  P    4.055555   3.322541   2.747761   1.855483   0.000000
    26  O    2.971993   3.237243   2.791607   2.692065   1.536571
    27  O    5.414132   4.765715   3.962296   2.783018   1.517640
    28  O    4.570418   3.451098   3.523285   2.735680   1.625216
    29  H    2.330107   3.225440   4.352316   5.492257   5.595360
    30  H    3.046523   1.096406   2.125576   2.499451   2.939783
    31  H    3.178047   1.095489   2.150984   3.133226   4.272472
    32  H    3.328177   2.051069   1.019086   2.054028   3.631239
    33  H    4.658341   2.705534   2.161227   1.096069   2.470644
    34  H    4.576194   3.388551   2.095060   1.092002   2.408705
    35  H    7.069413   7.533436   6.182181   5.824992   5.637955
    36  H    5.500490   4.405415   4.414343   3.441884   2.192620
                   26         27         28         29         30
    26  O    0.000000
    27  O    2.617842   0.000000
    28  O    2.568071   2.579670   0.000000
    29  H    4.728812   7.081433   5.456744   0.000000
    30  H    3.123438   4.395246   2.597673   3.533890   0.000000
    31  H    4.322642   5.655431   4.269057   3.490859   1.756390
    32  H    3.737306   4.681547   4.435036   4.845323   2.866747
    33  H    3.556771   3.280084   2.761982   5.851661   2.483153
    34  H    3.209906   2.805036   3.589314   6.355545   3.565515
    35  H    5.459214   5.012806   7.233601   9.383002   7.877856
    36  H    3.253766   2.584271   0.972864   6.344325   3.518753
                   31         32         33         34         35
    31  H    0.000000
    32  H    2.252977   0.000000
    33  H    3.073560   2.521340   0.000000
    34  H    3.949411   2.288195   1.778887   0.000000
    35  H    8.320095   6.324530   6.744410   5.034948   0.000000
    36  H    5.177185   5.289542   3.358908   4.152007   7.519176
                   36
    36  H    0.000000
 Stoichiometry    C6H15MgN2O10P2(1+)
 Framework group  C1[X(C6H15MgN2O10P2)]
 Deg. of freedom   102
 Full point group                 C1      NOp   1
 Largest Abelian subgroup         C1      NOp   1
 Largest concise Abelian subgroup C1      NOp   1
                         Standard orientation:                         
 ---------------------------------------------------------------------
 Center     Atomic      Atomic             Coordinates (Angstroms)
 Number     Number       Type             X           Y           Z
 ---------------------------------------------------------------------
      1          6           0        2.378090    2.312931    0.239765
      2          6           0        2.832005    1.408024   -0.890122
      3          7           0        1.705665    0.608480   -1.402919
      4          8           0        3.327723    3.133986    0.653284
      5          8           0        1.252103    2.285452    0.728521
      6          6           0        1.980192   -0.846000   -1.506600
      7         15           0        1.872396   -1.604358    0.168436
      8          8           0        1.336679   -3.071114    0.091261
      9          8           0        1.086157   -0.646024    1.048561
     10          8           0        3.418263   -1.740019    0.591245
     11          1           0        0.287965   -3.153059    0.034258
     12         12           0       -0.034160    0.750173    0.054375
     13          1           0        2.999336    3.677223    1.397684
     14          1           0        1.430447    0.948880   -2.322632
     15          1           0        3.300553    2.021886   -1.667225
     16          1           0        3.621880    0.761998   -0.489370
     17          1           0        1.180366   -1.292872   -2.101047
     18          1           0        2.945543   -1.071739   -1.973851
     19          6           0       -2.450682    2.250249   -0.232120
     20          8           0       -3.408472    3.038786   -0.687712
     21          8           0       -1.288469    2.307355   -0.628175
     22          6           0       -2.939243    1.266529    0.811068
     23          7           0       -1.808052    0.541505    1.421259
     24          6           0       -2.014249   -0.931359    1.498400
     25         15           0       -1.795642   -1.691340   -0.180129
     26          8           0       -1.033716   -0.631419   -0.990737
     27          8           0       -1.186355   -3.076852   -0.068969
     28          8           0       -3.314161   -1.787783   -0.751202
     29          1           0       -3.054225    3.625748   -1.385367
     30          1           0       -3.612737    0.569484    0.298584
     31          1           0       -3.547159    1.800800    1.549369
     32          1           0       -1.651530    0.895774    2.363878
     33          1           0       -2.987221   -1.197625    1.927112
     34          1           0       -1.226200   -1.340750    2.133890
     35          1           0        3.607800   -2.434661    1.247043
     36          1           0       -3.554190   -2.688786   -1.028772
 ---------------------------------------------------------------------
 Rotational constants (GHZ):           0.3198006           0.2575062           0.1658210
 Standard basis: def2TZVP (5D, 7F)
 There are   857 symmetry adapted cartesian basis functions of A   symmetry.
 There are   754 symmetry adapted basis functions of A   symmetry.
   754 basis functions,  1232 primitive gaussians,   857 cartesian basis functions
    93 alpha electrons       93 beta electrons
       nuclear repulsion energy      2593.7869727889 Hartrees.
 NAtoms=   36 NActive=   36 NUniq=   36 SFac= 1.00D+00 NAtFMM=   60 NAOKFM=F Big=F
 Integral buffers will be    131072 words long.
 Raffenetti 2 integral format.
 Two-electron integral symmetry is turned on.
 Nuclear repulsion after empirical dispersion term =     2593.7785638556 Hartrees.
 One-electron integrals computed using PRISM.
   1 Symmetry operations used in ECPInt.
 ECPInt:  NShTT=   43956 NPrTT=  140733 LenC2=   38424 LenP2D=   85031.
 LDataN:  DoStor=T MaxTD1= 6 Len=  172
 NBasis=   754 RedAO= T EigKep=  1.91D-04  NBF=   754
 NBsUse=   754 1.00D-06 EigRej= -1.00D+00 NBFU=   754
 ExpMin= 3.69D-02 ExpMax= 5.24D+04 ExpMxC= 1.79D+03 IAcc=3 IRadAn=         5 AccDes= 0.00D+00
 Harris functional with IExCor= 1009 and IRadAn=       5 diagonalized for initial guess.
 HarFok:  IExCor= 1009 AccDes= 0.00D+00 IRadAn=         5 IDoV= 1 UseB2=F ITyADJ=14
 ICtDFT=  3500011 ScaDFX=  1.000000  1.000000  1.000000  1.000000
 FoFCou: FMM=F IPFlag=           0 FMFlag=      100000 FMFlg1=           0
         NFxFlg=           0 DoJE=T BraDBF=F KetDBF=T FulRan=T
         wScrn=  0.000000 ICntrl=       500 IOpCl=  0 I1Cent=   200000004 NGrid=           0
         NMat0=    1 NMatS0=      1 NMatT0=    0 NMatD0=    1 NMtDS0=    0 NMtDT0=    0
 Petite list used in FoFCou.
 Initial guess <Sx>= 0.0000 <Sy>= 0.0000 <Sz>= 0.0000 <S**2>=-0.0000 S=-0.0000
 Requested convergence on RMS density matrix=1.00D-08 within  32 cycles.
 Requested convergence on MAX density matrix=1.00D-06.
 Requested convergence on             energy=1.00D-06.
 No special actions if energy rises.
 SCF Done:  E(UM06) =  -1982.34960460     A.U. after   13 cycles
            NFock= 13  Conv=0.37D-08     -V/T= 2.0037
 <Sx>= 0.0000 <Sy>= 0.0000 <Sz>= 0.0000 <S**2>=-0.0000 S=-0.0000
 <L.S>= 0.000000000000E+00
 Annihilation of the first spin contaminant:
 S**2 before annihilation    -0.0000,   after     0.0000
 QCSCF skips out because SCF is already converged.

 **********************************************************************

            Population analysis using the SCF Density.

 **********************************************************************

 Orbital symmetries:
 Alpha Orbitals:
       Occupied  (A) (A) (A) (A) (A) (A) (A) (A) (A) (A) (A) (A)
                 (A) (A) (A) (A) (A) (A) (A) (A) (A) (A) (A) (A)
                 (A) (A) (A) (A) (A) (A) (A) (A) (A) (A) (A) (A)
                 (A) (A) (A) (A) (A) (A) (A) (A) (A) (A) (A) (A)
                 (A) (A) (A) (A) (A) (A) (A) (A) (A) (A) (A) (A)
                 (A) (A) (A) (A) (A) (A) (A) (A) (A) (A) (A) (A)
                 (A) (A) (A) (A) (A) (A) (A) (A) (A) (A) (A) (A)
                 (A) (A) (A) (A) (A) (A) (A) (A) (A)
       Virtual   (A) (A) (A) (A) (A) (A) (A) (A) (A) (A) (A) (A)
                 (A) (A) (A) (A) (A) (A) (A) (A) (A) (A) (A) (A)
                 (A) (A) (A) (A) (A) (A) (A) (A) (A) (A) (A) (A)
                 (A) (A) (A) (A) (A) (A) (A) (A) (A) (A) (A) (A)
                 (A) (A) (A) (A) (A) (A) (A) (A) (A) (A) (A) (A)
                 (A) (A) (A) (A) (A) (A) (A) (A) (A) (A) (A) (A)
                 (A) (A) (A) (A) (A) (A) (A) (A) (A) (A) (A) (A)
                 (A) (A) (A) (A) (A) (A) (A) (A) (A) (A) (A) (A)
                 (A) (A) (A) (A) (A) (A) (A) (A) (A) (A) (A) (A)
                 (A) (A) (A) (A) (A) (A) (A) (A) (A) (A) (A) (A)
                 (A) (A) (A) (A) (A) (A) (A) (A) (A) (A) (A) (A)
                 (A) (A) (A) (A) (A) (A) (A) (A) (A) (A) (A) (A)
                 (A) (A) (A) (A) (A) (A) (A) (A) (A) (A) (A) (A)
                 (A) (A) (A) (A) (A) (A) (A) (A) (A) (A) (A) (A)
                 (A) (A) (A) (A) (A) (A) (A) (A) (A) (A) (A) (A)
                 (A) (A) (A) (A) (A) (A) (A) (A) (A) (A) (A) (A)
                 (A) (A) (A) (A) (A) (A) (A) (A) (A) (A) (A) (A)
                 (A) (A) (A) (A) (A) (A) (A) (A) (A) (A) (A) (A)
                 (A) (A) (A) (A) (A) (A) (A) (A) (A) (A) (A) (A)
                 (A) (A) (A) (A) (A) (A) (A) (A) (A) (A) (A) (A)
                 (A) (A) (A) (A) (A) (A) (A) (A) (A) (A) (A) (A)
                 (A) (A) (A) (A) (A) (A) (A) (A) (A) (A) (A) (A)
                 (A) (A) (A) (A) (A) (A) (A) (A) (A) (A) (A) (A)
                 (A) (A) (A) (A) (A) (A) (A) (A) (A) (A) (A) (A)
                 (A) (A) (A) (A) (A) (A) (A) (A) (A) (A) (A) (A)
                 (A) (A) (A) (A) (A) (A) (A) (A) (A) (A) (A) (A)
                 (A) (A) (A) (A) (A) (A) (A) (A) (A) (A) (A) (A)
                 (A) (A) (A) (A) (A) (A) (A) (A) (A) (A) (A) (A)
                 (A) (A) (A) (A) (A) (A) (A) (A) (A) (A) (A) (A)
                 (A) (A) (A) (A) (A) (A) (A) (A) (A) (A) (A) (A)
                 (A) (A) (A) (A) (A) (A) (A) (A) (A) (A) (A) (A)
                 (A) (A) (A) (A) (A) (A) (A) (A) (A) (A) (A) (A)
                 (A) (A) (A) (A) (A) (A) (A) (A) (A) (A) (A) (A)
                 (A) (A) (A) (A) (A) (A) (A) (A) (A) (A) (A) (A)
                 (A) (A) (A) (A) (A) (A) (A) (A) (A) (A) (A) (A)
                 (A) (A) (A) (A) (A) (A) (A) (A) (A) (A) (A) (A)
                 (A) (A) (A) (A) (A) (A) (A) (A) (A) (A) (A) (A)
                 (A) (A) (A) (A) (A) (A) (A) (A) (A) (A) (A) (A)
                 (A) (A) (A) (A) (A) (A) (A) (A) (A) (A) (A) (A)
                 (A) (A) (A) (A) (A) (A) (A) (A) (A) (A) (A) (A)
                 (A) (A) (A) (A) (A) (A) (A) (A) (A) (A) (A) (A)
                 (A) (A) (A) (A) (A) (A) (A) (A) (A) (A) (A) (A)
                 (A) (A) (A) (A) (A) (A) (A) (A) (A) (A) (A) (A)
                 (A) (A) (A) (A) (A) (A) (A) (A) (A) (A) (A) (A)
                 (A) (A) (A) (A) (A) (A) (A) (A) (A) (A) (A) (A)
                 (A) (A) (A) (A) (A) (A) (A) (A) (A) (A) (A) (A)
                 (A) (A) (A) (A) (A) (A) (A) (A) (A) (A) (A) (A)
                 (A) (A) (A) (A) (A) (A) (A) (A) (A) (A) (A) (A)
                 (A) (A) (A) (A) (A) (A) (A) (A) (A) (A) (A) (A)
                 (A) (A) (A) (A) (A) (A) (A) (A) (A) (A) (A) (A)
                 (A) (A) (A) (A) (A) (A) (A) (A) (A) (A) (A) (A)
                 (A) (A) (A) (A) (A) (A) (A) (A) (A) (A) (A) (A)
                 (A) (A) (A) (A) (A) (A) (A) (A) (A) (A) (A) (A)
                 (A) (A) (A) (A) (A) (A) (A) (A) (A) (A) (A) (A)
                 (A) (A) (A) (A) (A) (A) (A) (A) (A) (A) (A) (A)
                 (A)
 Beta  Orbitals:
       Occupied  (A) (A) (A) (A) (A) (A) (A) (A) (A) (A) (A) (A)
                 (A) (A) (A) (A) (A) (A) (A) (A) (A) (A) (A) (A)
                 (A) (A) (A) (A) (A) (A) (A) (A) (A) (A) (A) (A)
                 (A) (A) (A) (A) (A) (A) (A) (A) (A) (A) (A) (A)
                 (A) (A) (A) (A) (A) (A) (A) (A) (A) (A) (A) (A)
                 (A) (A) (A) (A) (A) (A) (A) (A) (A) (A) (A) (A)
                 (A) (A) (A) (A) (A) (A) (A) (A) (A) (A) (A) (A)
                 (A) (A) (A) (A) (A) (A) (A) (A) (A)
       Virtual   (A) (A) (A) (A) (A) (A) (A) (A) (A) (A) (A) (A)
                 (A) (A) (A) (A) (A) (A) (A) (A) (A) (A) (A) (A)
                 (A) (A) (A) (A) (A) (A) (A) (A) (A) (A) (A) (A)
                 (A) (A) (A) (A) (A) (A) (A) (A) (A) (A) (A) (A)
                 (A) (A) (A) (A) (A) (A) (A) (A) (A) (A) (A) (A)
                 (A) (A) (A) (A) (A) (A) (A) (A) (A) (A) (A) (A)
                 (A) (A) (A) (A) (A) (A) (A) (A) (A) (A) (A) (A)
                 (A) (A) (A) (A) (A) (A) (A) (A) (A) (A) (A) (A)
                 (A) (A) (A) (A) (A) (A) (A) (A) (A) (A) (A) (A)
                 (A) (A) (A) (A) (A) (A) (A) (A) (A) (A) (A) (A)
                 (A) (A) (A) (A) (A) (A) (A) (A) (A) (A) (A) (A)
                 (A) (A) (A) (A) (A) (A) (A) (A) (A) (A) (A) (A)
                 (A) (A) (A) (A) (A) (A) (A) (A) (A) (A) (A) (A)
                 (A) (A) (A) (A) (A) (A) (A) (A) (A) (A) (A) (A)
                 (A) (A) (A) (A) (A) (A) (A) (A) (A) (A) (A) (A)
                 (A) (A) (A) (A) (A) (A) (A) (A) (A) (A) (A) (A)
                 (A) (A) (A) (A) (A) (A) (A) (A) (A) (A) (A) (A)
                 (A) (A) (A) (A) (A) (A) (A) (A) (A) (A) (A) (A)
                 (A) (A) (A) (A) (A) (A) (A) (A) (A) (A) (A) (A)
                 (A) (A) (A) (A) (A) (A) (A) (A) (A) (A) (A) (A)
                 (A) (A) (A) (A) (A) (A) (A) (A) (A) (A) (A) (A)
                 (A) (A) (A) (A) (A) (A) (A) (A) (A) (A) (A) (A)
                 (A) (A) (A) (A) (A) (A) (A) (A) (A) (A) (A) (A)
                 (A) (A) (A) (A) (A) (A) (A) (A) (A) (A) (A) (A)
                 (A) (A) (A) (A) (A) (A) (A) (A) (A) (A) (A) (A)
                 (A) (A) (A) (A) (A) (A) (A) (A) (A) (A) (A) (A)
                 (A) (A) (A) (A) (A) (A) (A) (A) (A) (A) (A) (A)
                 (A) (A) (A) (A) (A) (A) (A) (A) (A) (A) (A) (A)
                 (A) (A) (A) (A) (A) (A) (A) (A) (A) (A) (A) (A)
                 (A) (A) (A) (A) (A) (A) (A) (A) (A) (A) (A) (A)
                 (A) (A) (A) (A) (A) (A) (A) (A) (A) (A) (A) (A)
                 (A) (A) (A) (A) (A) (A) (A) (A) (A) (A) (A) (A)
                 (A) (A) (A) (A) (A) (A) (A) (A) (A) (A) (A) (A)
                 (A) (A) (A) (A) (A) (A) (A) (A) (A) (A) (A) (A)
                 (A) (A) (A) (A) (A) (A) (A) (A) (A) (A) (A) (A)
                 (A) (A) (A) (A) (A) (A) (A) (A) (A) (A) (A) (A)
                 (A) (A) (A) (A) (A) (A) (A) (A) (A) (A) (A) (A)
                 (A) (A) (A) (A) (A) (A) (A) (A) (A) (A) (A) (A)
                 (A) (A) (A) (A) (A) (A) (A) (A) (A) (A) (A) (A)
                 (A) (A) (A) (A) (A) (A) (A) (A) (A) (A) (A) (A)
                 (A) (A) (A) (A) (A) (A) (A) (A) (A) (A) (A) (A)
                 (A) (A) (A) (A) (A) (A) (A) (A) (A) (A) (A) (A)
                 (A) (A) (A) (A) (A) (A) (A) (A) (A) (A) (A) (A)
                 (A) (A) (A) (A) (A) (A) (A) (A) (A) (A) (A) (A)
                 (A) (A) (A) (A) (A) (A) (A) (A) (A) (A) (A) (A)
                 (A) (A) (A) (A) (A) (A) (A) (A) (A) (A) (A) (A)
                 (A) (A) (A) (A) (A) (A) (A) (A) (A) (A) (A) (A)
                 (A) (A) (A) (A) (A) (A) (A) (A) (A) (A) (A) (A)
                 (A) (A) (A) (A) (A) (A) (A) (A) (A) (A) (A) (A)
                 (A) (A) (A) (A) (A) (A) (A) (A) (A) (A) (A) (A)
                 (A) (A) (A) (A) (A) (A) (A) (A) (A) (A) (A) (A)
                 (A) (A) (A) (A) (A) (A) (A) (A) (A) (A) (A) (A)
                 (A) (A) (A) (A) (A) (A) (A) (A) (A) (A) (A) (A)
                 (A) (A) (A) (A) (A) (A) (A) (A) (A) (A) (A) (A)
                 (A) (A) (A) (A) (A) (A) (A) (A) (A) (A) (A) (A)
                 (A)
 The electronic state is 1-A.
 Alpha  occ. eigenvalues --  -77.47018 -77.43210 -47.03441 -19.41336 -19.40831
 Alpha  occ. eigenvalues --  -19.36845 -19.36690 -19.36321 -19.33647 -19.33643
 Alpha  occ. eigenvalues --  -19.31150 -19.28740 -19.27677 -14.56101 -14.55234
 Alpha  occ. eigenvalues --  -10.54194 -10.53653 -10.43627 -10.42725 -10.41248
 Alpha  occ. eigenvalues --  -10.39324  -6.87455  -6.83654  -4.99548  -4.99344
 Alpha  occ. eigenvalues --   -4.99288  -4.95749  -4.95559  -4.95472  -3.26527
 Alpha  occ. eigenvalues --   -1.97850  -1.97803  -1.97753  -1.29362  -1.28837
 Alpha  occ. eigenvalues --   -1.21979  -1.20842  -1.20264  -1.18292  -1.16363
 Alpha  occ. eigenvalues --   -1.12819  -1.11648  -1.08845  -1.08239  -1.07544
 Alpha  occ. eigenvalues --   -0.91610  -0.90577  -0.84516  -0.82495  -0.78005
 Alpha  occ. eigenvalues --   -0.76987  -0.74673  -0.71045  -0.69372  -0.68750
 Alpha  occ. eigenvalues --   -0.68280  -0.67526  -0.67298  -0.66801  -0.66449
 Alpha  occ. eigenvalues --   -0.63864  -0.63036  -0.62704  -0.60949  -0.60801
 Alpha  occ. eigenvalues --   -0.60068  -0.60019  -0.58088  -0.57328  -0.56158
 Alpha  occ. eigenvalues --   -0.55705  -0.55390  -0.54447  -0.54026  -0.53684
 Alpha  occ. eigenvalues --   -0.52888  -0.52533  -0.51039  -0.50610  -0.50225
 Alpha  occ. eigenvalues --   -0.50005  -0.48330  -0.48001  -0.47489  -0.46940
 Alpha  occ. eigenvalues --   -0.46496  -0.45151  -0.44866  -0.44567  -0.43679
 Alpha  occ. eigenvalues --   -0.43396  -0.41066  -0.40975
 Alpha virt. eigenvalues --   -0.15377  -0.14578  -0.12826  -0.10282  -0.09461
 Alpha virt. eigenvalues --   -0.09191  -0.08052  -0.06343  -0.06105  -0.05055
 Alpha virt. eigenvalues --   -0.04953  -0.04609  -0.04427  -0.03930  -0.03128
 Alpha virt. eigenvalues --   -0.02340  -0.01622  -0.01276  -0.00641   0.00248
 Alpha virt. eigenvalues --    0.00578   0.00935   0.01647   0.01692   0.02815
 Alpha virt. eigenvalues --    0.03250   0.03518   0.03717   0.04232   0.04782
 Alpha virt. eigenvalues --    0.05237   0.05859   0.06845   0.07663   0.08244
 Alpha virt. eigenvalues --    0.09813   0.10234   0.10561   0.11225   0.12229
 Alpha virt. eigenvalues --    0.12528   0.12544   0.13177   0.13621   0.14414
 Alpha virt. eigenvalues --    0.15086   0.15802   0.16480   0.16511   0.17107
 Alpha virt. eigenvalues --    0.17535   0.18130   0.18326   0.19243   0.19715
 Alpha virt. eigenvalues --    0.20603   0.20726   0.20890   0.21570   0.21725
 Alpha virt. eigenvalues --    0.22328   0.22896   0.23214   0.23707   0.23940
 Alpha virt. eigenvalues --    0.24558   0.24746   0.24869   0.25504   0.26087
 Alpha virt. eigenvalues --    0.26549   0.26962   0.27076   0.27860   0.28237
 Alpha virt. eigenvalues --    0.28636   0.28962   0.29288   0.29791   0.29922
 Alpha virt. eigenvalues --    0.30581   0.31148   0.31424   0.32666   0.32795
 Alpha virt. eigenvalues --    0.33361   0.33703   0.34321   0.34571   0.35179
 Alpha virt. eigenvalues --    0.35544   0.36727   0.37140   0.37804   0.38085
 Alpha virt. eigenvalues --    0.38390   0.38967   0.40116   0.40554   0.40977
 Alpha virt. eigenvalues --    0.41570   0.42035   0.42162   0.43029   0.43430
 Alpha virt. eigenvalues --    0.44688   0.45028   0.46330   0.47602   0.47897
 Alpha virt. eigenvalues --    0.48389   0.48678   0.48967   0.49640   0.50626
 Alpha virt. eigenvalues --    0.50971   0.51941   0.53117   0.53296   0.54347
 Alpha virt. eigenvalues --    0.54972   0.55357   0.56664   0.57387   0.58129
 Alpha virt. eigenvalues --    0.58573   0.59075   0.59523   0.60544   0.60710
 Alpha virt. eigenvalues --    0.61207   0.62324   0.63577   0.64536   0.64953
 Alpha virt. eigenvalues --    0.65123   0.66911   0.66977   0.67573   0.68010
 Alpha virt. eigenvalues --    0.68650   0.69452   0.70009   0.70530   0.71088
 Alpha virt. eigenvalues --    0.71519   0.73243   0.73841   0.74044   0.74640
 Alpha virt. eigenvalues --    0.76414   0.76767   0.77853   0.78630   0.78904
 Alpha virt. eigenvalues --    0.79882   0.80194   0.81601   0.82556   0.82982
 Alpha virt. eigenvalues --    0.83986   0.86447   0.86864   0.87708   0.87993
 Alpha virt. eigenvalues --    0.88605   0.89686   0.90237   0.90533   0.92004
 Alpha virt. eigenvalues --    0.92755   0.93511   0.93854   0.94467   0.94762
 Alpha virt. eigenvalues --    0.96112   0.96669   0.97529   0.99081   0.99112
 Alpha virt. eigenvalues --    0.99750   1.03153   1.03993   1.04913   1.06243
 Alpha virt. eigenvalues --    1.08431   1.10029   1.12000   1.13426   1.14256
 Alpha virt. eigenvalues --    1.15304   1.16320   1.18033   1.18853   1.19697
 Alpha virt. eigenvalues --    1.20422   1.21338   1.22028   1.22902   1.23317
 Alpha virt. eigenvalues --    1.24002   1.24590   1.25600   1.26811   1.27380
 Alpha virt. eigenvalues --    1.27796   1.29050   1.30171   1.30699   1.31024
 Alpha virt. eigenvalues --    1.32231   1.33247   1.33527   1.34007   1.34462
 Alpha virt. eigenvalues --    1.35127   1.35345   1.36037   1.37049   1.38511
 Alpha virt. eigenvalues --    1.38753   1.40217   1.41400   1.42066   1.43694
 Alpha virt. eigenvalues --    1.43867   1.44768   1.45653   1.46602   1.47104
 Alpha virt. eigenvalues --    1.47450   1.48774   1.50032   1.50786   1.51671
 Alpha virt. eigenvalues --    1.52216   1.52612   1.52907   1.53181   1.53970
 Alpha virt. eigenvalues --    1.55642   1.56553   1.57809   1.58723   1.59616
 Alpha virt. eigenvalues --    1.60491   1.61551   1.62186   1.63169   1.63443
 Alpha virt. eigenvalues --    1.64282   1.65125   1.66400   1.66436   1.68944
 Alpha virt. eigenvalues --    1.69079   1.69930   1.70645   1.71462   1.73206
 Alpha virt. eigenvalues --    1.73260   1.74902   1.76758   1.77605   1.78634
 Alpha virt. eigenvalues --    1.78919   1.79204   1.80143   1.81605   1.82850
 Alpha virt. eigenvalues --    1.82995   1.83955   1.84492   1.85048   1.85648
 Alpha virt. eigenvalues --    1.86205   1.86840   1.87707   1.88838   1.89277
 Alpha virt. eigenvalues --    1.90077   1.91127   1.91915   1.92030   1.92691
 Alpha virt. eigenvalues --    1.93698   1.93979   1.94788   1.95087   1.96722
 Alpha virt. eigenvalues --    1.97363   1.97839   1.98661   1.99311   1.99633
 Alpha virt. eigenvalues --    2.01024   2.02059   2.03274   2.03563   2.04574
 Alpha virt. eigenvalues --    2.05672   2.06494   2.07295   2.07635   2.09080
 Alpha virt. eigenvalues --    2.09608   2.10124   2.11178   2.11694   2.13093
 Alpha virt. eigenvalues --    2.13536   2.14071   2.15432   2.16423   2.16964
 Alpha virt. eigenvalues --    2.17440   2.18273   2.18793   2.19917   2.20319
 Alpha virt. eigenvalues --    2.21721   2.22708   2.23654   2.24699   2.26543
 Alpha virt. eigenvalues --    2.27257   2.27539   2.28154   2.29061   2.29622
 Alpha virt. eigenvalues --    2.30737   2.31551   2.32068   2.34347   2.34832
 Alpha virt. eigenvalues --    2.35866   2.35872   2.36925   2.38685   2.39463
 Alpha virt. eigenvalues --    2.39997   2.41299   2.43612   2.45720   2.46475
 Alpha virt. eigenvalues --    2.47027   2.48269   2.48996   2.50693   2.51727
 Alpha virt. eigenvalues --    2.52075   2.52596   2.53547   2.54998   2.55315
 Alpha virt. eigenvalues --    2.56205   2.58742   2.59550   2.61825   2.62176
 Alpha virt. eigenvalues --    2.62515   2.62997   2.65210   2.66032   2.66763
 Alpha virt. eigenvalues --    2.67736   2.68834   2.69546   2.71116   2.71595
 Alpha virt. eigenvalues --    2.73861   2.74925   2.76478   2.77968   2.78937
 Alpha virt. eigenvalues --    2.79826   2.81064   2.82435   2.83638   2.84618
 Alpha virt. eigenvalues --    2.85255   2.85606   2.87151   2.87657   2.88980
 Alpha virt. eigenvalues --    2.90102   2.91275   2.91870   2.93002   2.93711
 Alpha virt. eigenvalues --    2.93757   2.94312   2.96172   2.97528   2.97846
 Alpha virt. eigenvalues --    2.98464   2.99772   3.00270   3.01381   3.02226
 Alpha virt. eigenvalues --    3.02497   3.04569   3.04983   3.05801   3.05888
 Alpha virt. eigenvalues --    3.06818   3.07571   3.07831   3.08823   3.09166
 Alpha virt. eigenvalues --    3.10199   3.11372   3.13601   3.14625   3.15276
 Alpha virt. eigenvalues --    3.16400   3.17914   3.18810   3.20100   3.20722
 Alpha virt. eigenvalues --    3.21142   3.21557   3.24362   3.24968   3.26884
 Alpha virt. eigenvalues --    3.27476   3.27735   3.28326   3.29572   3.30009
 Alpha virt. eigenvalues --    3.30490   3.31961   3.33896   3.34459   3.36404
 Alpha virt. eigenvalues --    3.37733   3.41154   3.41874   3.42325   3.43405
 Alpha virt. eigenvalues --    3.44009   3.46827   3.47028   3.48155   3.51585
 Alpha virt. eigenvalues --    3.52313   3.52907   3.54255   3.59215   3.60986
 Alpha virt. eigenvalues --    3.64850   3.65470   3.65786   3.66580   3.67564
 Alpha virt. eigenvalues --    3.68229   3.70179   3.71433   3.77018   3.78225
 Alpha virt. eigenvalues --    3.79224   3.80492   3.81614   3.82975   3.85571
 Alpha virt. eigenvalues --    3.89760   3.90856   3.92438   3.93416   3.94314
 Alpha virt. eigenvalues --    3.96338   3.97959   3.99807   4.01954   4.05156
 Alpha virt. eigenvalues --    4.14136   4.15037   4.19626   4.21840   4.29649
 Alpha virt. eigenvalues --    4.31183   4.32312   4.32479   4.35106   4.36008
 Alpha virt. eigenvalues --    4.54069   4.56010   4.57654   4.58285   4.69723
 Alpha virt. eigenvalues --    4.69868   4.84604   4.85290   4.92107   4.92747
 Alpha virt. eigenvalues --    4.93401   4.93734   4.97059   4.97999   5.00047
 Alpha virt. eigenvalues --    5.00434   5.00765   5.00914   5.01519   5.02659
 Alpha virt. eigenvalues --    5.03288   5.03991   5.04327   5.05665   5.05768
 Alpha virt. eigenvalues --    5.06028   5.06459   5.07149   5.07426   5.07711
 Alpha virt. eigenvalues --    5.08650   5.09052   5.09942   5.10300   5.11401
 Alpha virt. eigenvalues --    5.11658   5.12048   5.12738   5.13631   5.14432
 Alpha virt. eigenvalues --    5.15368   5.17124   5.18198   5.18415   5.20836
 Alpha virt. eigenvalues --    5.21876   5.22910   5.23443   5.23626   5.24031
 Alpha virt. eigenvalues --    5.24612   5.25075   5.25542   5.27546   5.28412
 Alpha virt. eigenvalues --    5.28776   5.30306   5.31764   5.31901   5.34241
 Alpha virt. eigenvalues --    5.35262   5.35875   5.36489   5.38608   5.38897
 Alpha virt. eigenvalues --    5.41818   5.43152   5.44032   5.44492   5.45708
 Alpha virt. eigenvalues --    5.46063   5.46115   5.51414   5.52263   5.57330
 Alpha virt. eigenvalues --    5.58427   5.59115   5.64950   5.65626   5.75769
 Alpha virt. eigenvalues --    5.76324   5.76685   5.77078   5.96278   5.98388
 Alpha virt. eigenvalues --    5.99874   6.05275   6.05946   6.06469   6.08447
 Alpha virt. eigenvalues --    6.16942   6.19171   6.19802   6.23871   6.25248
 Alpha virt. eigenvalues --    6.28640   6.33475   6.33564   6.35351   6.36088
 Alpha virt. eigenvalues --    6.37534   6.37976   6.39627   6.42229   6.43130
 Alpha virt. eigenvalues --    6.45599   6.48451   6.49671   6.51633   6.53216
 Alpha virt. eigenvalues --    6.54211   6.54559   6.55606   6.56488   6.57687
 Alpha virt. eigenvalues --    6.59386   6.60044   6.60768   6.61304   6.63308
 Alpha virt. eigenvalues --    6.63660   6.65055   6.66625   6.68500   6.69405
 Alpha virt. eigenvalues --    6.70373   6.71440   6.72349   6.72785   6.74715
 Alpha virt. eigenvalues --    6.75641   6.77737   6.78418   6.79395   6.80659
 Alpha virt. eigenvalues --    6.86263   6.88117   6.89883   6.91097   6.93617
 Alpha virt. eigenvalues --    6.93854   6.95219   7.02381   7.02636   7.04645
 Alpha virt. eigenvalues --    7.12371   7.12991   7.16706   7.16957   7.17950
 Alpha virt. eigenvalues --    7.76399   7.78054   7.94797   8.00544   8.14741
 Alpha virt. eigenvalues --    8.19796  16.63171  16.68841  22.26686  22.27452
 Alpha virt. eigenvalues --   22.33057  22.35314  23.11966  23.14518  32.25107
 Alpha virt. eigenvalues --   32.26772  43.45904  43.54380  43.61707  43.65973
 Alpha virt. eigenvalues --   43.68081  43.72300  43.74639  43.78106  43.80101
 Alpha virt. eigenvalues --   43.84185
  Beta  occ. eigenvalues --  -77.47018 -77.43210 -47.03441 -19.41336 -19.40831
  Beta  occ. eigenvalues --  -19.36845 -19.36690 -19.36321 -19.33647 -19.33643
  Beta  occ. eigenvalues --  -19.31150 -19.28740 -19.27677 -14.56101 -14.55234
  Beta  occ. eigenvalues --  -10.54194 -10.53653 -10.43627 -10.42725 -10.41248
  Beta  occ. eigenvalues --  -10.39324  -6.87455  -6.83654  -4.99548  -4.99344
  Beta  occ. eigenvalues --   -4.99288  -4.95749  -4.95559  -4.95472  -3.26527
  Beta  occ. eigenvalues --   -1.97850  -1.97803  -1.97753  -1.29362  -1.28837
  Beta  occ. eigenvalues --   -1.21979  -1.20842  -1.20264  -1.18292  -1.16363
  Beta  occ. eigenvalues --   -1.12819  -1.11648  -1.08845  -1.08239  -1.07544
  Beta  occ. eigenvalues --   -0.91610  -0.90577  -0.84516  -0.82495  -0.78005
  Beta  occ. eigenvalues --   -0.76987  -0.74673  -0.71045  -0.69372  -0.68750
  Beta  occ. eigenvalues --   -0.68280  -0.67526  -0.67298  -0.66801  -0.66449
  Beta  occ. eigenvalues --   -0.63864  -0.63036  -0.62704  -0.60949  -0.60801
  Beta  occ. eigenvalues --   -0.60068  -0.60019  -0.58088  -0.57328  -0.56158
  Beta  occ. eigenvalues --   -0.55705  -0.55390  -0.54447  -0.54026  -0.53684
  Beta  occ. eigenvalues --   -0.52888  -0.52533  -0.51039  -0.50610  -0.50225
  Beta  occ. eigenvalues --   -0.50005  -0.48330  -0.48001  -0.47489  -0.46940
  Beta  occ. eigenvalues --   -0.46496  -0.45151  -0.44866  -0.44567  -0.43679
  Beta  occ. eigenvalues --   -0.43396  -0.41066  -0.40975
  Beta virt. eigenvalues --   -0.15377  -0.14578  -0.12826  -0.10282  -0.09461
  Beta virt. eigenvalues --   -0.09191  -0.08052  -0.06343  -0.06105  -0.05055
  Beta virt. eigenvalues --   -0.04953  -0.04609  -0.04427  -0.03930  -0.03128
  Beta virt. eigenvalues --   -0.02340  -0.01622  -0.01276  -0.00641   0.00248
  Beta virt. eigenvalues --    0.00578   0.00935   0.01647   0.01692   0.02815
  Beta virt. eigenvalues --    0.03250   0.03518   0.03717   0.04232   0.04782
  Beta virt. eigenvalues --    0.05237   0.05859   0.06845   0.07663   0.08244
  Beta virt. eigenvalues --    0.09813   0.10234   0.10561   0.11225   0.12229
  Beta virt. eigenvalues --    0.12528   0.12544   0.13177   0.13621   0.14414
  Beta virt. eigenvalues --    0.15086   0.15802   0.16480   0.16511   0.17107
  Beta virt. eigenvalues --    0.17535   0.18130   0.18326   0.19243   0.19715
  Beta virt. eigenvalues --    0.20603   0.20726   0.20890   0.21570   0.21725
  Beta virt. eigenvalues --    0.22328   0.22896   0.23214   0.23707   0.23940
  Beta virt. eigenvalues --    0.24558   0.24746   0.24869   0.25504   0.26087
  Beta virt. eigenvalues --    0.26549   0.26962   0.27076   0.27860   0.28237
  Beta virt. eigenvalues --    0.28636   0.28962   0.29288   0.29791   0.29922
  Beta virt. eigenvalues --    0.30581   0.31148   0.31424   0.32666   0.32795
  Beta virt. eigenvalues --    0.33361   0.33703   0.34321   0.34571   0.35179
  Beta virt. eigenvalues --    0.35544   0.36727   0.37140   0.37804   0.38085
  Beta virt. eigenvalues --    0.38390   0.38967   0.40116   0.40554   0.40977
  Beta virt. eigenvalues --    0.41570   0.42035   0.42162   0.43029   0.43430
  Beta virt. eigenvalues --    0.44688   0.45028   0.46330   0.47602   0.47897
  Beta virt. eigenvalues --    0.48389   0.48678   0.48967   0.49640   0.50626
  Beta virt. eigenvalues --    0.50971   0.51941   0.53117   0.53296   0.54347
  Beta virt. eigenvalues --    0.54972   0.55357   0.56664   0.57387   0.58129
  Beta virt. eigenvalues --    0.58573   0.59075   0.59523   0.60544   0.60710
  Beta virt. eigenvalues --    0.61207   0.62324   0.63577   0.64536   0.64953
  Beta virt. eigenvalues --    0.65123   0.66911   0.66977   0.67573   0.68010
  Beta virt. eigenvalues --    0.68650   0.69452   0.70009   0.70530   0.71088
  Beta virt. eigenvalues --    0.71519   0.73243   0.73841   0.74044   0.74640
  Beta virt. eigenvalues --    0.76414   0.76767   0.77853   0.78630   0.78904
  Beta virt. eigenvalues --    0.79882   0.80194   0.81601   0.82556   0.82982
  Beta virt. eigenvalues --    0.83986   0.86447   0.86864   0.87708   0.87993
  Beta virt. eigenvalues --    0.88605   0.89686   0.90237   0.90533   0.92004
  Beta virt. eigenvalues --    0.92755   0.93511   0.93854   0.94467   0.94762
  Beta virt. eigenvalues --    0.96112   0.96669   0.97529   0.99081   0.99112
  Beta virt. eigenvalues --    0.99750   1.03153   1.03993   1.04913   1.06243
  Beta virt. eigenvalues --    1.08431   1.10029   1.12000   1.13426   1.14256
  Beta virt. eigenvalues --    1.15304   1.16320   1.18033   1.18853   1.19697
  Beta virt. eigenvalues --    1.20422   1.21338   1.22028   1.22902   1.23317
  Beta virt. eigenvalues --    1.24002   1.24590   1.25600   1.26811   1.27380
  Beta virt. eigenvalues --    1.27796   1.29050   1.30171   1.30699   1.31024
  Beta virt. eigenvalues --    1.32231   1.33247   1.33527   1.34007   1.34462
  Beta virt. eigenvalues --    1.35127   1.35345   1.36037   1.37049   1.38511
  Beta virt. eigenvalues --    1.38753   1.40217   1.41400   1.42066   1.43694
  Beta virt. eigenvalues --    1.43867   1.44768   1.45653   1.46602   1.47104
  Beta virt. eigenvalues --    1.47450   1.48774   1.50032   1.50786   1.51671
  Beta virt. eigenvalues --    1.52216   1.52612   1.52907   1.53181   1.53970
  Beta virt. eigenvalues --    1.55642   1.56553   1.57809   1.58723   1.59616
  Beta virt. eigenvalues --    1.60491   1.61551   1.62186   1.63169   1.63443
  Beta virt. eigenvalues --    1.64282   1.65125   1.66400   1.66436   1.68944
  Beta virt. eigenvalues --    1.69079   1.69930   1.70645   1.71462   1.73206
  Beta virt. eigenvalues --    1.73260   1.74902   1.76758   1.77605   1.78634
  Beta virt. eigenvalues --    1.78919   1.79204   1.80143   1.81605   1.82850
  Beta virt. eigenvalues --    1.82995   1.83955   1.84492   1.85048   1.85648
  Beta virt. eigenvalues --    1.86205   1.86840   1.87707   1.88838   1.89277
  Beta virt. eigenvalues --    1.90077   1.91127   1.91915   1.92030   1.92691
  Beta virt. eigenvalues --    1.93698   1.93979   1.94788   1.95087   1.96722
  Beta virt. eigenvalues --    1.97363   1.97839   1.98661   1.99311   1.99633
  Beta virt. eigenvalues --    2.01024   2.02059   2.03274   2.03563   2.04574
  Beta virt. eigenvalues --    2.05672   2.06494   2.07295   2.07635   2.09080
  Beta virt. eigenvalues --    2.09608   2.10124   2.11178   2.11694   2.13093
  Beta virt. eigenvalues --    2.13536   2.14071   2.15432   2.16423   2.16964
  Beta virt. eigenvalues --    2.17440   2.18273   2.18793   2.19917   2.20319
  Beta virt. eigenvalues --    2.21721   2.22708   2.23654   2.24699   2.26543
  Beta virt. eigenvalues --    2.27257   2.27539   2.28154   2.29061   2.29622
  Beta virt. eigenvalues --    2.30737   2.31551   2.32068   2.34347   2.34832
  Beta virt. eigenvalues --    2.35866   2.35872   2.36925   2.38685   2.39463
  Beta virt. eigenvalues --    2.39997   2.41299   2.43612   2.45720   2.46475
  Beta virt. eigenvalues --    2.47027   2.48269   2.48996   2.50693   2.51727
  Beta virt. eigenvalues --    2.52075   2.52596   2.53547   2.54998   2.55315
  Beta virt. eigenvalues --    2.56205   2.58742   2.59550   2.61825   2.62176
  Beta virt. eigenvalues --    2.62515   2.62997   2.65210   2.66032   2.66763
  Beta virt. eigenvalues --    2.67736   2.68834   2.69546   2.71116   2.71595
  Beta virt. eigenvalues --    2.73861   2.74925   2.76478   2.77968   2.78937
  Beta virt. eigenvalues --    2.79826   2.81064   2.82435   2.83638   2.84618
  Beta virt. eigenvalues --    2.85255   2.85606   2.87151   2.87657   2.88980
  Beta virt. eigenvalues --    2.90102   2.91275   2.91870   2.93002   2.93711
  Beta virt. eigenvalues --    2.93757   2.94312   2.96172   2.97528   2.97846
  Beta virt. eigenvalues --    2.98464   2.99772   3.00270   3.01381   3.02226
  Beta virt. eigenvalues --    3.02497   3.04569   3.04983   3.05801   3.05888
  Beta virt. eigenvalues --    3.06818   3.07571   3.07831   3.08823   3.09166
  Beta virt. eigenvalues --    3.10199   3.11372   3.13601   3.14625   3.15276
  Beta virt. eigenvalues --    3.16400   3.17914   3.18810   3.20100   3.20722
  Beta virt. eigenvalues --    3.21142   3.21557   3.24362   3.24968   3.26884
  Beta virt. eigenvalues --    3.27476   3.27735   3.28326   3.29572   3.30009
  Beta virt. eigenvalues --    3.30490   3.31961   3.33896   3.34459   3.36404
  Beta virt. eigenvalues --    3.37733   3.41154   3.41874   3.42325   3.43405
  Beta virt. eigenvalues --    3.44009   3.46827   3.47028   3.48155   3.51585
  Beta virt. eigenvalues --    3.52313   3.52907   3.54255   3.59215   3.60986
  Beta virt. eigenvalues --    3.64850   3.65470   3.65786   3.66580   3.67564
  Beta virt. eigenvalues --    3.68229   3.70179   3.71433   3.77018   3.78225
  Beta virt. eigenvalues --    3.79224   3.80492   3.81614   3.82975   3.85571
  Beta virt. eigenvalues --    3.89760   3.90856   3.92438   3.93416   3.94314
  Beta virt. eigenvalues --    3.96338   3.97959   3.99807   4.01954   4.05156
  Beta virt. eigenvalues --    4.14136   4.15037   4.19626   4.21840   4.29649
  Beta virt. eigenvalues --    4.31183   4.32312   4.32479   4.35106   4.36008
  Beta virt. eigenvalues --    4.54069   4.56010   4.57654   4.58285   4.69723
  Beta virt. eigenvalues --    4.69868   4.84604   4.85290   4.92107   4.92747
  Beta virt. eigenvalues --    4.93401   4.93734   4.97059   4.97999   5.00047
  Beta virt. eigenvalues --    5.00434   5.00765   5.00914   5.01519   5.02659
  Beta virt. eigenvalues --    5.03288   5.03991   5.04327   5.05665   5.05768
  Beta virt. eigenvalues --    5.06028   5.06459   5.07149   5.07426   5.07711
  Beta virt. eigenvalues --    5.08650   5.09052   5.09942   5.10300   5.11401
  Beta virt. eigenvalues --    5.11658   5.12048   5.12738   5.13631   5.14432
  Beta virt. eigenvalues --    5.15368   5.17124   5.18198   5.18415   5.20836
  Beta virt. eigenvalues --    5.21876   5.22910   5.23443   5.23626   5.24031
  Beta virt. eigenvalues --    5.24612   5.25075   5.25542   5.27546   5.28412
  Beta virt. eigenvalues --    5.28776   5.30306   5.31764   5.31901   5.34241
  Beta virt. eigenvalues --    5.35262   5.35875   5.36489   5.38608   5.38897
  Beta virt. eigenvalues --    5.41818   5.43152   5.44032   5.44492   5.45708
  Beta virt. eigenvalues --    5.46063   5.46115   5.51414   5.52263   5.57330
  Beta virt. eigenvalues --    5.58427   5.59115   5.64950   5.65626   5.75769
  Beta virt. eigenvalues --    5.76324   5.76685   5.77078   5.96278   5.98388
  Beta virt. eigenvalues --    5.99874   6.05275   6.05946   6.06469   6.08447
  Beta virt. eigenvalues --    6.16942   6.19171   6.19802   6.23871   6.25248
  Beta virt. eigenvalues --    6.28640   6.33475   6.33564   6.35351   6.36088
  Beta virt. eigenvalues --    6.37534   6.37976   6.39627   6.42229   6.43130
  Beta virt. eigenvalues --    6.45599   6.48451   6.49671   6.51633   6.53216
  Beta virt. eigenvalues --    6.54211   6.54559   6.55606   6.56488   6.57687
  Beta virt. eigenvalues --    6.59386   6.60044   6.60768   6.61304   6.63308
  Beta virt. eigenvalues --    6.63660   6.65055   6.66625   6.68500   6.69405
  Beta virt. eigenvalues --    6.70373   6.71440   6.72349   6.72785   6.74715
  Beta virt. eigenvalues --    6.75641   6.77737   6.78418   6.79395   6.80659
  Beta virt. eigenvalues --    6.86263   6.88117   6.89883   6.91097   6.93617
  Beta virt. eigenvalues --    6.93854   6.95219   7.02381   7.02636   7.04645
  Beta virt. eigenvalues --    7.12371   7.12991   7.16706   7.16957   7.17950
  Beta virt. eigenvalues --    7.76399   7.78054   7.94797   8.00544   8.14741
  Beta virt. eigenvalues --    8.19796  16.63171  16.68841  22.26686  22.27452
  Beta virt. eigenvalues --   22.33057  22.35314  23.11966  23.14518  32.25107
  Beta virt. eigenvalues --   32.26772  43.45904  43.54380  43.61707  43.65973
  Beta virt. eigenvalues --   43.68081  43.72300  43.74639  43.78106  43.80101
  Beta virt. eigenvalues --   43.84185
          Condensed to atoms (all electrons):
               1          2          3          4          5          6
     1  C    4.592110   0.217828  -0.031903   0.371865   0.424769   0.005040
     2  C    0.217828   5.159923   0.147182  -0.093237  -0.040254  -0.026183
     3  N   -0.031903   0.147182   6.893259   0.003754  -0.021121   0.141356
     4  O    0.371865  -0.093237   0.003754   7.890285  -0.069663  -0.000114
     5  O    0.424769  -0.040254  -0.021121  -0.069663   8.110675   0.003411
     6  C    0.005040  -0.026183   0.141356  -0.000114   0.003411   5.170928
     7  P   -0.001130   0.002870  -0.031882   0.000134  -0.001796   0.280083
     8  O    0.000050  -0.000484   0.001717   0.000000  -0.000005  -0.018562
     9  O   -0.000465   0.001870  -0.011172   0.000028  -0.015945  -0.043882
    10  O    0.001410  -0.010022   0.000196  -0.000021   0.000016  -0.030545
    11  H   -0.000007   0.000061  -0.000377   0.000000   0.000008   0.002797
    12  Mg  -0.028522  -0.026380   0.113173  -0.001770   0.096330  -0.030716
    13  H   -0.014113   0.011785  -0.000605   0.283362   0.005652  -0.000005
    14  H    0.002532  -0.019398   0.343205  -0.000029   0.000920  -0.026714
    15  H   -0.030824   0.404231  -0.019939   0.003522   0.000250  -0.001853
    16  H   -0.042832   0.425456  -0.036999   0.003830   0.000345   0.005038
    17  H   -0.000356   0.005366  -0.022163   0.000000  -0.000055   0.400961
    18  H   -0.000051  -0.012903  -0.028750   0.000005  -0.000017   0.409962
    19  C    0.000214  -0.000191  -0.000610  -0.000007   0.000256  -0.000076
    20  O   -0.000002   0.000000  -0.000000  -0.000000  -0.000024  -0.000004
    21  O   -0.000427   0.000123  -0.003055  -0.000027  -0.016592  -0.001285
    22  C   -0.000189  -0.000182   0.000359   0.000000  -0.000105  -0.000090
    23  N   -0.000705   0.000471  -0.003327  -0.000002  -0.001841   0.000612
    24  C    0.000042  -0.000127   0.000594  -0.000003  -0.001245  -0.001969
    25  P    0.000079   0.000131   0.000139   0.000001   0.000252  -0.005497
    26  O    0.000624  -0.001417  -0.022457  -0.000000  -0.001543   0.008221
    27  O   -0.000002   0.000015   0.000095  -0.000000  -0.000000  -0.003089
    28  O   -0.000000  -0.000000   0.000001   0.000000  -0.000000   0.000001
    29  H   -0.000013  -0.000003  -0.000003   0.000000   0.000010   0.000002
    30  H    0.000007  -0.000002   0.000004  -0.000000  -0.000003  -0.000017
    31  H   -0.000002   0.000001   0.000001  -0.000000  -0.000006   0.000001
    32  H    0.000159  -0.000094   0.000013   0.000001  -0.000356  -0.000059
    33  H   -0.000002   0.000000  -0.000000  -0.000000  -0.000010   0.000021
    34  H   -0.000039  -0.000007  -0.000034   0.000000  -0.000035   0.000420
    35  H   -0.000021   0.000212  -0.000221  -0.000002   0.000001   0.003182
    36  H    0.000000  -0.000000   0.000002   0.000000   0.000000  -0.000007
               7          8          9         10         11         12
     1  C   -0.001130   0.000050  -0.000465   0.001410  -0.000007  -0.028522
     2  C    0.002870  -0.000484   0.001870  -0.010022   0.000061  -0.026380
     3  N   -0.031882   0.001717  -0.011172   0.000196  -0.000377   0.113173
     4  O    0.000134   0.000000   0.000028  -0.000021   0.000000  -0.001770
     5  O   -0.001796  -0.000005  -0.015945   0.000016   0.000008   0.096330
     6  C    0.280083  -0.018562  -0.043882  -0.030545   0.002797  -0.030716
     7  P   12.702580   0.407084   0.471153   0.392450  -0.006336   0.011755
     8  O    0.407084   7.969189  -0.026641  -0.028189   0.245485  -0.002659
     9  O    0.471153  -0.026641   8.048636  -0.026489   0.001558   0.167008
    10  O    0.392450  -0.028189  -0.026489   7.896596   0.000395   0.002223
    11  H   -0.006336   0.245485   0.001558   0.000395   0.244427   0.003370
    12  Mg   0.011755  -0.002659   0.167008   0.002223   0.003370  10.446321
    13  H   -0.000009  -0.000000   0.000001  -0.000001  -0.000000   0.000599
    14  H    0.007814  -0.000180   0.000408  -0.000189   0.000016  -0.011132
    15  H   -0.000256   0.000002   0.000145   0.000101  -0.000000   0.003537
    16  H   -0.001723   0.000124  -0.000379   0.006065  -0.000003  -0.003530
    17  H   -0.022771   0.000424   0.002156   0.001038   0.000314  -0.008677
    18  H   -0.034698   0.002410   0.001898   0.001820  -0.000049   0.005777
    19  C    0.000105  -0.000001   0.000772   0.000000  -0.000002  -0.033702
    20  O    0.000001  -0.000000  -0.000000   0.000000   0.000000  -0.001222
    21  O    0.000269  -0.000000  -0.001385  -0.000000   0.000006   0.094312
    22  C    0.000072  -0.000004  -0.001578  -0.000000   0.000052  -0.027901
    23  N    0.000029   0.000030  -0.014183   0.000001  -0.000309   0.129093
    24  C   -0.004149  -0.001060   0.000304  -0.000013   0.002897  -0.031543
    25  P    0.011685   0.000841  -0.007368   0.000060  -0.011380   0.010234
    26  O   -0.008301  -0.001454  -0.015224  -0.000023   0.001894   0.210218
    27  O    0.006919  -0.067640  -0.002765  -0.000026   0.099828   0.002507
    28  O    0.000061  -0.000057  -0.000022  -0.000000   0.000267   0.001789
    29  H    0.000000  -0.000000   0.000001   0.000000  -0.000000   0.000231
    30  H    0.000004   0.000002  -0.000008   0.000000  -0.000011  -0.003430
    31  H   -0.000000   0.000000  -0.000009  -0.000000  -0.000000   0.005194
    32  H   -0.000081  -0.000005  -0.000347  -0.000001   0.000019  -0.012432
    33  H   -0.000016   0.000013   0.000300  -0.000000  -0.000042   0.005445
    34  H    0.000482   0.000458  -0.001184  -0.000023   0.000148  -0.007133
    35  H   -0.009016   0.001021   0.000568   0.297413   0.000073   0.000540
    36  H   -0.000008   0.000019   0.000007   0.000000   0.000035   0.000148
              13         14         15         16         17         18
     1  C   -0.014113   0.002532  -0.030824  -0.042832  -0.000356  -0.000051
     2  C    0.011785  -0.019398   0.404231   0.425456   0.005366  -0.012903
     3  N   -0.000605   0.343205  -0.019939  -0.036999  -0.022163  -0.028750
     4  O    0.283362  -0.000029   0.003522   0.003830   0.000000   0.000005
     5  O    0.005652   0.000920   0.000250   0.000345  -0.000055  -0.000017
     6  C   -0.000005  -0.026714  -0.001853   0.005038   0.400961   0.409962
     7  P   -0.000009   0.007814  -0.000256  -0.001723  -0.022771  -0.034698
     8  O   -0.000000  -0.000180   0.000002   0.000124   0.000424   0.002410
     9  O    0.000001   0.000408   0.000145  -0.000379   0.002156   0.001898
    10  O   -0.000001  -0.000189   0.000101   0.006065   0.001038   0.001820
    11  H   -0.000000   0.000016  -0.000000  -0.000003   0.000314  -0.000049
    12  Mg   0.000599  -0.011132   0.003537  -0.003530  -0.008677   0.005777
[...]
 114089,0.00045513,-0.00004226,-0.00058054,-0.00102996,-0.00022540,0.00
 048957,0.00046397,0.00010100,-0.00001593,0.00026015,0.00001516,0.00013
 212,0.00014874,0.00002974,-0.00016924,0.00041106,-0.00673549,0.0049764
 3,-0.00874844,0.10018999,-0.09588404,0.19254093,-0.00107478,-0.0000884
 8,-0.00044662,0.00021378,0.00006159,-0.00009459,-0.00018464,-0.0001115
 9,0.00008185,0.00041719,0.00020877,-0.00000789,0.00087643,0.00018989,0
 .00092978,0.00005604,-0.00008197,0.00012619,-0.00000074,0.00117871,-0.
 00081119,-0.00061275,-0.00058535,0.00019969,0.00033013,-0.00110114,0.0
 0124314,0.00007801,-0.00021164,0.00012591,0.00093490,0.00002360,-0.000
 07857,0.00249056,0.00208368,-0.00484610,-0.00008292,-0.00011653,-0.000
 00447,0.00008805,-0.00000326,0.00001931,-0.00003055,-0.00003528,0.0000
 3220,-0.00003814,-0.00002734,0.00003126,0.00005422,-0.00000784,0.00006
 615,-0.00001570,0.00000883,0.00004362,-0.00102454,-0.00044436,-0.00020
 656,-0.00003233,0.00039039,0.00005120,-0.00044179,-0.00105756,0.000004
 98,-0.01315892,-0.00682391,0.03003638,-0.03519115,-0.00405786,0.044172
 39,-0.00185623,-0.00558724,0.00472294,-0.00013601,-0.00150618,-0.00004
 134,-0.00070917,0.00143181,-0.00182840,-0.00080714,0.00117844,-0.00018
 322,0.00054206,0.00042339,-0.00038013,0.00003119,0.00012648,-0.0000752
 3,-0.00333940,0.00298490,0.00260127,0.00188160,-0.00086644,-0.00036358
 ,0.05052753,-0.00033182,0.00001443,-0.00012593,0.00010456,0.00004004,-
 0.00001302,-0.00004716,-0.00002918,-0.00000044,0.00011818,0.00002710,0
 .00001168,0.00030757,-0.00009154,0.00031419,-0.00003388,0.00006973,-0.
 00003669,0.00008688,-0.00055828,0.00034979,0.00047143,0.00026160,-0.00
 012301,-0.00027593,0.00017352,-0.00041072,-0.00001947,0.00008270,-0.00
 005836,-0.00078983,-0.00006244,0.00016436,0.00075678,0.00060074,-0.000
 44581,-0.00005741,-0.00000369,-0.00001610,0.00001017,-0.00000900,0.000
 00186,-0.00000456,-0.00001661,0.00001045,-0.00000490,-0.00000862,0.000
 02065,-0.00000753,-0.00002385,-0.00001761,0.00000257,-0.00000920,-0.00
 001934,0.00309353,0.00065087,-0.00086678,-0.00017662,-0.00124951,-0.00
 067121,-0.00093025,-0.00050196,-0.00017850,0.00499916,0.00478856,-0.01
 942993,-0.01463963,-0.08567434,0.10541805,-0.00517517,-0.01861380,0.03
 430997,-0.00166334,-0.00397306,-0.00428739,0.00009691,0.00131119,-0.00
 026376,0.00143020,-0.00138151,0.00127319,-0.00083030,0.00002841,0.0011
 9721,0.00008540,-0.00018760,0.00003746,0.00090858,-0.00124685,-0.00100
 728,0.00102641,0.00040962,-0.00051374,0.01121691,0.10306559,-0.0007583
 8,-0.00010491,-0.00018476,0.00007362,0.00001377,-0.00001110,0.00001578
 ,-0.00006798,0.00005487,0.00036342,0.00019848,-0.00008744,0.00072381,0
 .00012823,0.00036150,0.00001748,0.00000608,0.00003891,-0.00024703,0.00
 050825,-0.00028151,-0.00006568,-0.00022161,0.00005130,0.00037962,-0.00
 055454,0.00026037,0.00018031,-0.00011859,-0.00001949,0.00012520,0.0000
 3081,-0.00002272,0.00028066,0.00143396,-0.00367907,-0.00005108,-0.0000
 5728,0.00006812,0.00001282,0.00000157,-0.00000870,-0.00000986,-0.00001
 409,0.00001682,-0.00001474,-0.00001358,0.00001692,0.00001198,-0.000002
 18,0.00001605,0.00000237,-0.00000354,0.00001682,0.00212830,-0.00026588
 ,-0.00122778,-0.00032494,-0.00014380,-0.00024300,-0.00026839,-0.000292
 95,0.00025533,-0.00315310,0.00343336,-0.01010771,0.08236089,0.11611318
 ,-0.37775422,-0.00364317,-0.00339845,0.00284815,-0.00097408,-0.0005859
 6,-0.00045718,-0.00002230,0.00096396,-0.00030910,0.00016221,-0.0000065
 9,0.00019486,-0.00007807,-0.00005376,0.00039511,0.00008154,-0.00015379
 ,0.00002045,-0.00059054,-0.00098304,0.00038775,-0.00077578,0.00004451,
 0.00243491,-0.07578076,-0.11467380,0.38569951,0.00020869,0.00007896,0.
 00002840,0.00001384,0.00001689,-0.00000469,-0.00004078,0.00000055,-0.0
 0003400,-0.00010301,-0.00007801,0.00004024,-0.00017900,-0.00007732,-0.
 00005885,-0.00001923,0.00005083,-0.00004777,0.00052534,-0.00066246,0.0
 0047917,0.00006499,0.00022441,-0.00006419,-0.00074321,0.00014610,-0.00
 048308,-0.00019856,0.00012601,0.00001132,-0.00013238,-0.00010272,0.000
 05610,0.00050585,0.00016749,0.00078025,0.00001417,0.00002350,-0.000019
 88,-0.00000833,-0.00000238,0.00000742,0.00000253,-0.00000286,-0.000003
 49,0.00000934,0.00000334,0.00000242,-0.00000135,-0.00000835,-0.0000052
 6,-0.00000346,-0.00001313,-0.00002285,-0.00028491,-0.00000599,-0.00013
 710,0.00007238,-0.00011618,-0.00008259,0.00012441,-0.00000207,0.000101
 48,0.00176224,0.00060876,0.00160481,-0.00035137,-0.00412127,-0.0004674
 6,-0.25741782,-0.04508353,-0.09323913,-0.00332155,-0.00089353,0.001471
 77,0.00081326,0.00071745,0.00072759,0.00049422,0.00049912,-0.00064412,
 0.00090885,-0.00011737,0.00084362,-0.00000530,0.00002087,0.00001598,0.
 00029944,-0.00018953,-0.00018118,0.00037659,-0.00038377,-0.00067043,-0
 .00045152,-0.00050948,-0.00012213,0.27375302,0.00039443,-0.00007962,0.
 00020366,-0.00009386,-0.00004726,0.00003564,0.00004653,0.00012787,-0.0
 0003763,-0.00017333,-0.00004251,-0.00001682,-0.00047078,0.00000333,-0.
 00026315,0.00001236,-0.00009693,0.00001097,-0.00064254,0.00010757,-0.0
 0021601,0.00027111,0.00005081,0.00003665,0.00065429,0.00043177,0.00022
 250,0.00018858,-0.00003019,-0.00003588,-0.00037437,0.00017068,-0.00011
 653,0.00102874,-0.00201893,0.00172510,0.00002932,0.00001493,-0.0000133
 1,-0.00001738,-0.00001542,-0.00000052,0.00001242,0.00002041,-0.0000120
 0,0.00000285,0.00000763,-0.00002025,-0.00003981,0.00002782,-0.00003458
 ,0.00001046,0.00003898,0.00001145,-0.00058889,0.00018763,-0.00053139,0
 .00022128,-0.00027499,-0.00012136,0.00074878,-0.00037760,-0.00058823,-
 0.00387193,0.00319558,0.00166823,-0.03184463,-0.02286429,-0.01418065,-
 0.03735075,-0.05409223,-0.01701156,0.00854094,0.00454439,-0.00267177,0
 .00074040,0.00143631,0.00313895,-0.00094308,-0.00221399,0.00063449,-0.
 00069971,-0.00020125,-0.00011435,-0.00001421,-0.00001022,0.00006851,0.
 00056841,0.00023080,-0.00046336,-0.00005572,-0.00025770,0.00031225,0.0
 0006472,0.00084956,-0.00100055,0.05339978,0.06789606,-0.00002530,0.000
 04433,-0.00005702,0.00003319,0.00004481,-0.00004031,-0.00012926,-0.000
 03950,0.00002117,-0.00000218,-0.00002772,0.00002594,0.00003253,-0.0000
 4090,0.00004846,0.00000729,-0.00002117,0.00004686,0.00015389,0.0001100
 2,-0.00037935,-0.00009175,-0.00001803,0.00007024,0.00028068,0.00006880
 ,0.00050954,-0.00002996,-0.00000143,0.00004785,0.00018142,-0.00005225,
 -0.00002168,0.00040704,0.00091282,-0.00063737,-0.00000248,0.00000546,-
 0.00000177,0.00005922,0.00003002,0.00002611,-0.00001210,-0.00001057,0.
 00000727,-0.00001050,-0.00000897,0.00000582,0.00007442,-0.00002772,0.0
 0005987,-0.00002671,-0.00001425,0.00001713,-0.00047818,-0.00011228,-0.
 00080015,0.00011334,0.00005309,0.00009221,0.00053355,-0.00015039,0.000
 39288,-0.00040358,-0.00009610,0.00030425,0.00193861,-0.00069661,0.0019
 7364,-0.10047300,-0.02143626,-0.08651397,-0.02190932,-0.00676644,-0.00
 418456,-0.00126556,-0.00127485,-0.00653824,0.00111569,0.00322998,-0.00
 117392,0.00168215,-0.00039079,0.00228000,-0.00001348,-0.00001152,-0.00
 000142,0.00001787,-0.00069202,-0.00048183,-0.00007451,-0.00013413,-0.0
 0015647,0.00100570,0.00010756,0.00042497,0.10043560,0.02298075,0.08659
 083,-0.00007924,-0.00009530,0.00001670,-0.00003215,-0.00001610,-0.0000
 0545,-0.00002241,0.00004641,0.00005994,0.00004272,0.00005537,-0.000034
 78,0.00002904,0.00009955,0.00002011,0.00010801,-0.00010831,0.00007339,
 -0.00088687,0.00061293,-0.00087892,-0.00010454,-0.00025243,0.00035726,
 -0.00198552,-0.00038513,0.00063042,0.00020475,-0.00007490,0.00003932,0
 .00054701,0.00014928,-0.00018012,0.00053195,-0.00044888,-0.00039975,-0
 .00000187,-0.00002223,0.00001146,0.00003915,0.00000604,0.00000909,-0.0
 0000222,0.00000374,0.00000206,-0.00001216,-0.00000412,-0.00000818,-0.0
 0000298,0.00000146,0.00001318,-0.00000722,0.00003215,0.00005864,0.0003
 2043,0.00005265,-0.00021645,-0.00003880,-0.00008193,-0.00009913,-0.000
 02468,-0.00002986,0.00006101,0.00025598,-0.00131246,0.00035510,0.00541
 583,-0.00429722,-0.00522197,-0.18326936,0.07824376,0.11277404,0.000528
 15,-0.00125227,-0.00079288,-0.00133945,0.00001266,-0.00044455,0.000157
 22,-0.00031885,-0.00064813,0.00090720,0.00037003,0.00014333,0.00000876
 ,-0.00003965,-0.00001689,0.00020401,0.00010231,-0.00023554,0.00013113,
 -0.00018328,-0.00015010,0.00065514,0.00074405,-0.00002759,-0.01676544,
 0.01022513,0.01682617,0.19439042,-0.00001619,-0.00005892,0.00000545,-0
 .00001556,-0.00002246,0.00000927,0.00003550,0.00002418,-0.00001580,0.0
 0000874,0.00002698,-0.00001534,-0.00003325,0.00008255,0.00005218,0.000
 01541,-0.00013178,0.00008623,-0.00015966,0.00116184,-0.00018676,-0.000
 13719,-0.00040326,-0.00023061,0.00055983,-0.00050881,0.00057115,0.0001
 4104,-0.00018698,-0.00001292,-0.00000371,0.00000208,0.00035912,0.00039
 019,-0.00083654,-0.00033038,0.00000075,-0.00001743,-0.00000632,0.00000
 685,-0.00002246,0.00000114,0.00000361,0.00000560,-0.00000009,-0.000005
 09,0.00000172,-0.00000437,0.00000035,0.00002651,0.00000762,0.00000623,
 0.00002641,0.00002133,0.00183393,-0.00014813,0.00089662,-0.00009451,-0
 .00062274,-0.00074433,-0.00059413,-0.00001101,-0.00026868,-0.00226788,
 -0.00536242,-0.00006565,0.02349264,-0.02036472,-0.02122481,0.06848127,
 -0.08409931,-0.05731558,-0.00789148,0.00560365,0.00197204,0.00173921,0
 .00036004,0.00081629,0.00042180,-0.00078168,-0.00027191,-0.00154815,-0
 .00240666,0.00274913,0.00006468,-0.00003256,-0.00004654,-0.00026404,-0
 .00018124,0.00005244,0.00039678,-0.00049625,-0.00038870,0.00117277,0.0
 0118012,-0.00019907,-0.00375380,0.00326195,0.00412624,-0.08192983,0.10
 458805,-0.00006484,-0.00014357,0.00005085,-0.00005758,-0.00001049,-0.0
 0000910,-0.00007024,0.00009721,0.00007533,0.00004838,0.00006970,-0.000
 05551,0.00000325,0.00014298,-0.00000817,0.00004605,-0.00014033,0.00006
 719,-0.00142852,0.00041856,-0.00119801,0.00044135,-0.00001744,0.000286
 11,0.00141475,0.00026156,0.00107316,0.00048176,-0.00012556,-0.00001391
 ,-0.00052199,0.00034686,-0.00046251,0.00059073,-0.00099104,-0.00088135
 ,0.00000034,-0.00002322,0.00001967,0.00007542,0.00001793,0.00001961,-0
 .00000460,0.00000761,0.00000502,-0.00002345,-0.00001156,-0.00001228,0.
 00001404,-0.00001370,0.00002791,-0.00001933,0.00003405,0.00005987,-0.0
 0004047,0.00019443,0.00007017,-0.00003766,0.00005974,0.00006071,-0.000
 09879,-0.00002146,-0.00001477,-0.00024823,0.00105198,0.00109081,-0.001
 29871,0.00252177,0.00055814,0.11840111,-0.07014350,-0.13916337,0.01840
 841,-0.01151232,-0.01145885,-0.00398880,0.00068599,-0.00152816,-0.0012
 4512,-0.00074494,0.00340448,0.00173851,0.00362148,-0.00325118,0.000006
 36,0.00002882,0.00002009,-0.00013601,0.00003402,-0.00005911,-0.0001147
 9,-0.00020914,-0.00007949,-0.00030212,-0.00016328,0.00078241,-0.010194
 75,0.00618576,0.00816053,-0.12201016,0.06894173,0.14323728,0.00044165,
 0.00046163,-0.00023632,-0.00011292,-0.00009716,-0.00001963,-0.00028455
 ,0.00013242,0.00012857,-0.00027748,-0.00024979,0.00020281,-0.00022386,
 -0.00026321,-0.00001424,-0.00241590,-0.00071503,0.00019640,-0.01745255
 ,0.02712706,0.02487662,0.00550184,-0.00065805,-0.00281275,-0.00116808,
 -0.00150532,-0.00190782,-0.03837091,0.05734847,0.05272474,-0.00316329,
 -0.00008437,-0.00040550,-0.00028119,0.00061965,0.00025258,0.00005670,0
 .00004700,-0.00005642,0.00005338,0.00008176,-0.00001582,0.00008957,-0.
 00007164,-0.00003792,0.00018709,0.00023299,0.00008636,0.00029841,0.000
 31887,0.00066987,0.00018918,-0.00009239,0.00002117,-0.00016407,0.00018
 710,0.00008362,0.00010893,-0.00014601,-0.00008953,0.00010911,-0.000134
 15,-0.00002448,-0.00009277,0.00004499,0.00004695,0.00010934,-0.0001495
 1,0.00003075,0.00000858,0.00001753,-0.00000996,-0.00087490,0.00127574,
 0.00023685,0.00018030,-0.00039861,-0.00018048,0.00197750,-0.00075955,-
 0.00008675,0.00050113,-0.00019193,-0.00018293,-0.00001363,0.00004223,0
 .00002240,-0.00000927,0.00001489,-0.00001329,0.00001156,-0.00001642,-0
 .00000490,-0.00001308,-0.00000098,-0.00001934,0.00002336,-0.00003329,0
 .00000473,-0.00005812,0.00001997,-0.00007298,0.05526800,-0.00005812,-0
 .00018165,-0.00007665,-0.00019704,-0.00008626,0.00003426,-0.00018806,0
 .00024819,0.00045770,0.00002939,0.00014673,-0.00000060,-0.00000020,0.0
 0016219,0.00005349,-0.00192935,0.00139275,0.00163134,0.00214563,0.0004
 0615,-0.00384172,-0.00237250,-0.00370778,0.00067453,-0.00150245,0.0010
 5842,0.00095049,0.08593861,-0.30206917,-0.24858474,0.00025265,-0.00015
 977,0.00015467,0.00074594,-0.00041255,-0.00020081,0.00000286,-0.000103
 83,0.00000059,0.00008663,0.00015612,0.00000147,0.00003562,-0.00001062,
 -0.00000804,0.00007997,-0.00007976,-0.00011129,-0.00010671,0.00018861,
 0.00036538,-0.00013713,0.00010995,-0.00025106,0.00026545,-0.00007959,0
 .00000954,-0.00012517,0.00010032,0.00005403,-0.00022264,0.00005144,-0.
 00002304,0.00001936,-0.00005372,-0.00003619,-0.00017903,-0.00003364,0.
 00000083,0.00000488,0.00000704,-0.00001451,0.00042778,0.00063889,0.000
 07735,-0.00049004,-0.00027817,-0.00000716,-0.00009653,-0.00027206,-0.0
 0002326,-0.00018299,-0.00013696,0.00005592,0.00002285,-0.00002497,-0.0
 0002133,0.00000281,0.00000670,0.00000400,-0.00000375,0.00001094,0.0000
 0047,0.00006550,-0.00000728,0.00002622,-0.00003096,0.00000978,-0.00000
 383,0.00004203,0.00003979,0.00002673,-0.08236166,0.30291614,-0.0002250
 9,-0.00043046,0.00031259,-0.00005954,0.00012718,0.00009622,0.00028343,
 0.00001052,-0.00066774,0.00019891,0.00018941,-0.00021809,0.00009059,0.
 00022433,-0.00011081,0.00307136,-0.00039512,0.00002356,0.00566311,-0.0
 0766026,-0.00668001,-0.00591622,-0.00093579,0.00024002,-0.00523380,0.0
 0192485,-0.00147624,0.07449303,-0.24063454,-0.19946680,0.00232084,0.00
 006547,0.00023696,0.00033829,-0.00062073,-0.00024361,-0.00004161,-0.00
 000609,0.00008720,0.00001972,-0.00016277,0.00004782,-0.00003961,0.0000
 3371,0.00002854,-0.00007749,-0.00016767,-0.00009516,0.00008189,-0.0004
 4725,-0.00049535,0.00000598,-0.00006172,0.00031611,0.00015404,-0.00009
 154,0.00000248,-0.00007712,0.00008157,0.00003560,-0.00011572,0.0000796
 8,-0.00002294,0.00002652,-0.00003595,-0.00003808,-0.00013012,0.0000692
 7,-0.00007020,-0.00005102,0.00004383,-0.00002699,0.00071414,-0.0007545
 9,0.00006612,-0.00023361,0.00019028,0.00007812,-0.00153550,0.00050239,
 -0.00009069,-0.00032916,0.00014027,0.00006540,0.00001005,-0.00002686,-
 0.00000536,0.00000742,-0.00000931,0.00000964,-0.00001092,0.00001120,0.
 00000618,-0.00001434,0.00002220,0.00004094,-0.00003591,0.00003105,-0.0
 0000365,0.00001369,0.00002991,0.00009755,-0.07345853,0.24863702,0.2079
 4648,-0.00016114,-0.00015631,0.00005274,-0.00007759,-0.00002196,0.0000
 1129,-0.00002424,0.00013346,0.00004478,0.00010028,0.00012236,-0.000072
 46,0.00010649,0.00011328,0.00000502,0.00004587,-0.00002425,-0.00002160
 ,-0.00092757,-0.00173575,0.00008111,0.00266727,0.00101617,-0.00003116,
 0.00006003,0.00054208,0.00000705,0.00049664,0.00024215,-0.00012679,-0.
 00376668,0.00008903,-0.00004670,-0.00010681,-0.00022923,-0.00020215,-0
 .00001353,-0.00003923,0.00001966,0.00001353,0.00001081,-0.00000640,0.0
 0000065,0.00001021,-0.00000048,-0.00001467,-0.00001818,-0.00001106,-0.
 00005178,-0.00005012,-0.00005560,0.00000151,0.00002982,0.00001167,0.00
 016095,-0.00049469,-0.00029615,-0.00018603,0.00025063,0.00018282,-0.00
 007434,0.00017882,0.00007159,0.00006880,0.00025751,-0.00012753,-0.0002
 4533,0.00011866,-0.00010164,-0.00075015,0.00068182,0.00046177,-0.01707
 025,-0.03320385,0.01033189,-0.00461480,-0.00041208,0.00018121,0.007007
 64,0.00182465,-0.00312484,-0.05890897,-0.11208214,0.03270125,0.0000388
 3,-0.00004950,-0.00004297,0.00016734,-0.00033177,0.00027180,0.00008205
 ,0.00009474,-0.00005146,0.00002470,0.00003900,0.00000696,0.00005470,0.
 00005376,0.00004477,0.00015613,-0.00007707,0.00030870,-0.00013907,0.00
 001635,0.00009228,0.07587952,-0.00024225,-0.00009135,-0.00001436,-0.00
 002539,-0.00004886,0.00003809,0.00016771,0.00000100,0.00002719,0.00011
 980,0.00009963,-0.00005182,0.00019977,0.00006252,0.00003230,0.00000526
 ,0.00001162,0.00001290,-0.00047910,0.00020717,-0.00005441,0.00066401,0
 .00000322,0.00003794,0.00033980,-0.00014798,0.00003013,0.00024406,-0.0
 0006548,-0.00005819,-0.00097516,0.00009691,-0.00010519,-0.00060939,-0.
 00034634,0.00007853,-0.00002163,-0.00002561,0.00001946,-0.00005454,-0.
 00000583,-0.00003297,0.00000290,0.00001083,-0.00000179,-0.00000130,0.0
 0000125,-0.00000688,-0.00004501,0.00003210,-0.00003655,0.00002837,0.00
 001719,0.00000313,0.00007027,-0.00023860,-0.00012696,-0.00007562,0.000
 17728,0.00008839,0.00000285,0.00017538,0.00004545,0.00022639,-0.000018
 95,-0.00005234,0.00005851,0.00024104,-0.00014637,0.00171832,0.00022297
 ,-0.00163190,-0.00340128,-0.00074173,0.00096624,0.00276032,0.00207157,
 0.00047769,0.00386669,-0.00444970,-0.00126989,-0.14752783,-0.46619346,
 0.09975133,0.00000764,-0.00006575,-0.00001872,-0.00007781,-0.00017922,
 0.00005453,-0.00003141,0.00000088,0.00001437,-0.00009643,0.00009453,0.
 00001356,0.00007065,0.00000928,0.00031382,0.00005321,0.00030390,-0.000
 47734,-0.00004324,0.00004762,0.00002652,0.14310084,0.46873097,0.000128
 03,0.00006229,0.00001895,0.00001281,0.00003323,-0.00003145,-0.00012238
 ,-0.00004906,-0.00007140,-0.00006120,-0.00005815,0.00002236,-0.0000985
 5,-0.00005720,-0.00002522,-0.00003349,-0.00004074,-0.00001973,0.000572
 73,0.00058326,0.00013963,-0.00134481,-0.00038722,-0.00004436,-0.000229
 42,-0.00013010,0.00007451,-0.00024133,-0.00009606,0.00001099,0.0018991
 3,-0.00015819,-0.00001797,0.00019518,0.00035952,-0.00018022,0.00000835
 ,0.00001932,-0.00000384,-0.00000238,-0.00001705,0.00004364,-0.00000725
 ,-0.00000909,0.00000535,0.00000365,0.00000374,0.00000836,-0.00000449,-
 0.00003267,0.00008448,-0.00002892,-0.00002558,-0.00000300,-0.00017636,
 0.00026084,0.00017023,0.00012055,-0.00012242,-0.00013085,0.00005798,-0
 .00014929,-0.00006595,-0.00007662,0.00002066,0.00011296,-0.00020960,-0
 .00023022,-0.00023131,0.00434526,-0.00081546,-0.00189750,0.00870074,0.
 01215138,-0.00406931,-0.00460862,-0.00204415,0.00008111,-0.00443687,0.
 00014722,-0.00091697,0.03634423,0.08767314,-0.01908800,-0.00002555,0.0
 0001860,0.00005722,0.00001647,0.00012683,-0.00006600,0.00001744,0.0000
 2229,0.00000338,-0.00002886,0.00008409,0.00000771,-0.00008730,0.000183
 94,-0.00011384,-0.00009433,0.00062995,-0.00097112,0.00006517,-0.000011
 78,-0.00002582,-0.04056939,-0.09794587,0.02713298\\-0.00006001,0.00000
 084,-0.00001601,0.00004307,0.00004285,-0.00000715,-0.00003736,-0.00001
 722,0.00000507,0.00000272,0.00001624,0.00000333,0.00001980,-0.00000135
 ,0.00001512,0.00000103,-0.00000947,0.00000973,-0.00001580,0.00001595,0
 .00000962,-0.00000233,0.00000711,-0.00001943,0.00002760,-0.00003037,-0
 .00002776,0.00002932,0.00003974,0.00000429,0.00001996,0.00000465,0.000
 01243,0.00000511,-0.00000306,0.00007028,-0.00000505,0.00000873,0.00000
 570,-0.00000303,0.00001051,0.00000962,-0.00001004,-0.00000272,0.000006
 31,-0.00000579,0.00000817,0.00000343,0.00000352,0.00000530,0.00000048,
 0.00000088,0.00000802,0.00000658,0.00004487,-0.00001517,0.00001181,-0.
 00003211,0.00000013,-0.00000177,-0.00002081,-0.00000872,-0.00001368,-0
 .00002979,-0.00000044,-0.00000444,-0.00003546,-0.00002629,-0.00005069,
 0.00001332,0.00002714,0.00001887,0.00003771,-0.00003182,-0.00000187,-0
 .00000323,0.00002135,-0.00004104,0.00000018,0.00001339,0.00000310,-0.0
 0002031,-0.00000051,-0.00000517,-0.00001279,-0.00000958,-0.00000795,0.
 00000298,-0.00001015,-0.00000223,0.00000814,-0.00000893,-0.00000282,-0
 .00000334,-0.00000431,-0.00000085,0.00000860,-0.00001179,-0.00000184,0
 .00001457,-0.00000558,0.00000095,-0.00000238,-0.00001285,0.00000698,0.
 00001628,-0.00001977,0.00000103\\\@
 The archive entry for this job was punched.


 IT IS A QUALITY OF REVOLUTIONS NOT TO GO BY OLD LINES OR OLD LAWS,
 BUT TO BREAK UP BOTH, AND MAKE NEW ONES.
                                              -- A. LINCOLN (1848)
 Job cpu time:       2 days 15 hours 12 minutes 37.3 seconds.
 Elapsed time:       0 days  1 hours 47 minutes 37.1 seconds.
 File lengths (MBytes):  RWF=   3345 Int=      0 D2E=      0 Chk=     63 Scr=      1
 Normal termination of Gaussian 16 at Mon Jul 29 19:42:32 2024.
