 Entering Gaussian System, Link 0=g16
 Initial command:
 /apps/gaussian/g16c01/g16/l1.exe "/jobfs/122092754.gadi-pbs/Gau-8253.inp" -scrdir="/jobfs/122092754.gadi-pbs/"
 Entering Link 1 = /apps/gaussian/g16c01/g16/l1.exe PID=      8254.
  
 Copyright (c) 1988-2019, Gaussian, Inc.  All Rights Reserved.
  
 This is part of the Gaussian(R) 16 program.  It is based on
 the Gaussian(R) 09 system (copyright 2009, Gaussian, Inc.),
 the Gaussian(R) 03 system (copyright 2003, Gaussian, Inc.),
 the Gaussian(R) 98 system (copyright 1998, Gaussian, Inc.),
 the Gaussian(R) 94 system (copyright 1995, Gaussian, Inc.),
 the Gaussian 92(TM) system (copyright 1992, Gaussian, Inc.),
 the Gaussian 90(TM) system (copyright 1990, Gaussian, Inc.),
 the Gaussian 88(TM) system (copyright 1988, Gaussian, Inc.),
 the Gaussian 86(TM) system (copyright 1986, Carnegie Mellon
 University), and the Gaussian 82(TM) system (copyright 1983,
 Carnegie Mellon University). Gaussian is a federally registered
 trademark of Gaussian, Inc.
  
 This software contains proprietary and confidential information,
 including trade secrets, belonging to Gaussian, Inc.
  
 This software is provided under written license and may be
 used, copied, transmitted, or stored only in accord with that
 written license.
  
 The following legend is applicable only to US Government
 contracts under FAR:
  
                    RESTRICTED RIGHTS LEGEND
  
 Use, reproduction and disclosure by the US Government is
 subject to restrictions as set forth in subparagraphs (a)
 and (c) of the Commercial Computer Software - Restricted
 Rights clause in FAR 52.227-19.
  
 Gaussian, Inc.
 340 Quinnipiac St., Bldg. 40, Wallingford CT 06492
  
  
 ---------------------------------------------------------------
 Warning -- This program may not be used in any manner that
 competes with the business of Gaussian, Inc. or will provide
 assistance to any competitor of Gaussian, Inc.  The licensee
 of this program is prohibited from giving any competitor of
 Gaussian, Inc. access to this program.  By using this program,
 the user acknowledges that Gaussian, Inc. is engaged in the
 business of creating and licensing software in the field of
 computational chemistry and represents and warrants to the
 licensee that it is not a competitor of Gaussian, Inc. and that
 it will not use this program in any manner prohibited above.
 ---------------------------------------------------------------
  

 Cite this work as:
 Gaussian 16, Revision C.01,
 M. J. Frisch, G. W. Trucks, H. B. Schlegel, G. E. Scuseria, 
 M. A. Robb, J. R. Cheeseman, G. Scalmani, V. Barone, 
 G. A. Petersson, H. Nakatsuji, X. Li, M. Caricato, A. V. Marenich, 
 J. Bloino, B. G. Janesko, R. Gomperts, B. Mennucci, H. P. Hratchian, 
 J. V. Ortiz, A. F. Izmaylov, J. L. Sonnenberg, D. Williams-Young, 
 F. Ding, F. Lipparini, F. Egidi, J. Goings, B. Peng, A. Petrone, 
 T. Henderson, D. Ranasinghe, V. G. Zakrzewski, J. Gao, N. Rega, 
 G. Zheng, W. Liang, M. Hada, M. Ehara, K. Toyota, R. Fukuda, 
 J. Hasegawa, M. Ishida, T. Nakajima, Y. Honda, O. Kitao, H. Nakai, 
 T. Vreven, K. Throssell, J. A. Montgomery, Jr., J. E. Peralta, 
 F. Ogliaro, M. J. Bearpark, J. J. Heyd, E. N. Brothers, K. N. Kudin, 
 V. N. Staroverov, T. A. Keith, R. Kobayashi, J. Normand, 
 K. Raghavachari, A. P. Rendell, J. C. Burant, S. S. Iyengar, 
 J. Tomasi, M. Cossi, J. M. Millam, M. Klene, C. Adamo, R. Cammi, 
 J. W. Ochterski, R. L. Martin, K. Morokuma, O. Farkas, 
 J. B. Foresman, and D. J. Fox, Gaussian, Inc., Wallingford CT, 2019.
 
 ******************************************
 Gaussian 16:  ES64L-G16RevC.01  3-Jul-2019
                 1-Aug-2024 
 ******************************************
 %mem=60gb
 %nprocs=48
 Will use up to   48 processors via shared memory.
 %RWF=/scratch/gy60/or4187/rwf/gasphase_globalmin_actual_mndimer.rwf
 %NoSave
 %Chk=gasphase_globalmin_actual_mndimer.chk
 ----------------------------------------------------------------------
 #UM06/Def2TZVP OPT Freq=Noraman INT(grid=ultrafine) EmpiricalDispersio
 n=GD3 SCF=XQC Pop=NPA
 ----------------------------------------------------------------------
 1/18=20,19=15,26=4,38=1/1,3;
 2/9=110,12=2,17=6,18=5,40=1/2;
 3/5=44,7=101,11=2,25=1,30=1,71=1,74=-54,75=-5,116=2,124=31/1,2,3;
 4//1;
 5/5=2,8=3,13=1,38=5/2,8;
 6/7=2,8=2,9=2,10=2,28=1,40=-1/1,7;
 7//1,2,3,16;
 1/18=20,19=15,26=4/3(2);
 2/9=110/2;
 99//99;
 2/9=110/2;
 3/5=44,7=101,11=2,25=1,30=1,71=1,74=-54,75=-5,116=2,124=31/1,2,3;
 4/5=5,16=3,69=1/1;
 5/5=2,8=3,13=1,38=5/2,8;
 7//1,2,3,16;
 1/18=20,19=15,26=4/3(-5);
 2/9=110/2;
 6/7=2,8=2,9=2,10=2,19=2,28=1,40=-1/1,7;
 99/9=1/99;
 -----------------------------------------
 gasphase_globalmin_actual_mndimer.optfreq
 -----------------------------------------
 Symbolic Z-matrix:
 Charge =  1 Multiplicity = 6
 C                    -1.85203  -2.40878  -1.58172 
 C                    -2.86573  -1.3445   -1.20063 
 N                    -2.16908  -0.19872  -0.62129 
 O                    -2.36175  -3.35592  -2.35123 
 O                    -0.68517  -2.41256  -1.19775 
 C                    -2.89948   0.56507   0.40261 
 P                    -1.6582    1.51603   1.3599 
 O                    -1.3225    2.86877   0.64753 
 O                    -0.46737   0.59391   1.58805 
 O                    -2.47297   1.89511   2.68639 
 H                    -0.38848   2.93078   0.14835 
 Mn                    0.09518  -0.6923   -0.01235 
 H                    -1.67986  -4.03067  -2.544 
 H                    -1.85019   0.42604  -1.365 
 H                    -3.48499  -1.10078  -2.07274 
 H                    -3.53188  -1.79368  -0.45403 
 H                    -3.67466   1.22814  -0.00065 
 H                    -3.37084  -0.13132   1.10351 
 C                     2.27741  -2.06486   1.56664 
 O                     2.94309  -2.91003   2.33593 
 O                     1.10893  -2.24383   1.23018 
 C                     3.11248  -0.87926   1.11875 
 N                     2.23723   0.14337   0.54838 
 C                     2.79758   0.94864  -0.55754 
 P                     1.36633   1.77641  -1.36436 
 O                     0.35481   0.63578  -1.5966 
 O                     0.88345   2.95325  -0.52705 
 O                     1.96193   2.27921  -2.77801 
 H                     2.37152  -3.66978   2.56721 
 H                     3.80246  -1.24936   0.35066 
 H                     3.72945  -0.52772   1.95467 
 H                     1.91187   0.76823   1.28799 
 H                     3.25439   0.2761   -1.28992 
 H                     3.54935   1.6761   -0.22872 
 H                    -2.27845   2.77968   3.04394 
 H                     1.87978   3.24124  -2.89758 
 
 Add virtual bond connecting atoms O27        and H11        Dist= 2.72D+00.

 GradGradGradGradGradGradGradGradGradGradGradGradGradGradGradGradGradGrad
 Berny optimization.
 Initialization pass.
                           ----------------------------
                           !    Initial Parameters    !
                           ! (Angstroms and Degrees)  !
 --------------------------                            --------------------------
 ! Name  Definition              Value          Derivative Info.                !
 --------------------------------------------------------------------------------
 ! R1    R(1,2)                  1.5184         estimate D2E/DX2                !
 ! R2    R(1,4)                  1.3225         estimate D2E/DX2                !
 ! R3    R(1,5)                  1.2284         estimate D2E/DX2                !
 ! R4    R(2,3)                  1.4607         estimate D2E/DX2                !
 ! R5    R(2,15)                 1.097          estimate D2E/DX2                !
 ! R6    R(2,16)                 1.0968         estimate D2E/DX2                !
 ! R7    R(3,6)                  1.4715         estimate D2E/DX2                !
 ! R8    R(3,14)                 1.0223         estimate D2E/DX2                !
 ! R9    R(4,13)                 0.9785         estimate D2E/DX2                !
 ! R10   R(6,7)                  1.8334         estimate D2E/DX2                !
 ! R11   R(6,17)                 1.0969         estimate D2E/DX2                !
 ! R12   R(6,18)                 1.0947         estimate D2E/DX2                !
 ! R13   R(7,8)                  1.5653         estimate D2E/DX2                !
 ! R14   R(7,9)                  1.5233         estimate D2E/DX2                !
 ! R15   R(7,10)                 1.6022         estimate D2E/DX2                !
 ! R16   R(8,11)                 1.0609         estimate D2E/DX2                !
 ! R17   R(10,35)                0.9737         estimate D2E/DX2                !
 ! R18   R(11,27)                1.4403         estimate D2E/DX2                !
 ! R19   R(12,26)                2.0835         estimate D2E/DX2                !
 ! R20   R(19,20)                1.3226         estimate D2E/DX2                !
 ! R21   R(19,21)                1.2291         estimate D2E/DX2                !
 ! R22   R(19,22)                1.5178         estimate D2E/DX2                !
 ! R23   R(20,29)                0.9785         estimate D2E/DX2                !
 ! R24   R(22,23)                1.4619         estimate D2E/DX2                !
 ! R25   R(22,30)                1.0968         estimate D2E/DX2                !
 ! R26   R(22,31)                1.0968         estimate D2E/DX2                !
 ! R27   R(23,24)                1.4783         estimate D2E/DX2                !
 ! R28   R(23,32)                1.0214         estimate D2E/DX2                !
 ! R29   R(24,25)                1.8397         estimate D2E/DX2                !
 ! R30   R(24,33)                1.0942         estimate D2E/DX2                !
 ! R31   R(24,34)                1.0966         estimate D2E/DX2                !
 ! R32   R(25,26)                1.5421         estimate D2E/DX2                !
 ! R33   R(25,27)                1.5229         estimate D2E/DX2                !
 ! R34   R(25,28)                1.6143         estimate D2E/DX2                !
 ! R35   R(28,36)                0.9729         estimate D2E/DX2                !
 ! A1    A(2,1,4)              112.9984         estimate D2E/DX2                !
 ! A2    A(2,1,5)              123.9083         estimate D2E/DX2                !
 ! A3    A(4,1,5)              123.0776         estimate D2E/DX2                !
 ! A4    A(1,2,3)              109.3261         estimate D2E/DX2                !
 ! A5    A(1,2,15)             109.4545         estimate D2E/DX2                !
 ! A6    A(1,2,16)             106.8149         estimate D2E/DX2                !
 ! A7    A(3,2,15)             114.2203         estimate D2E/DX2                !
 ! A8    A(3,2,16)             109.9333         estimate D2E/DX2                !
 ! A9    A(15,2,16)            106.8148         estimate D2E/DX2                !
 ! A10   A(2,3,6)              116.5126         estimate D2E/DX2                !
 ! A11   A(2,3,14)             109.8523         estimate D2E/DX2                !
 ! A12   A(6,3,14)             110.1102         estimate D2E/DX2                !
 ! A13   A(1,4,13)             109.8704         estimate D2E/DX2                !
 ! A14   A(3,6,7)              107.2468         estimate D2E/DX2                !
 ! A15   A(3,6,17)             114.1263         estimate D2E/DX2                !
 ! A16   A(3,6,18)             109.2108         estimate D2E/DX2                !
 ! A17   A(7,6,17)             110.9083         estimate D2E/DX2                !
 ! A18   A(7,6,18)             106.688          estimate D2E/DX2                !
 ! A19   A(17,6,18)            108.3986         estimate D2E/DX2                !
 ! A20   A(6,7,8)              110.844          estimate D2E/DX2                !
 ! A21   A(6,7,9)              107.0667         estimate D2E/DX2                !
 ! A22   A(6,7,10)             102.1638         estimate D2E/DX2                !
 ! A23   A(8,7,9)              115.0654         estimate D2E/DX2                !
 ! A24   A(8,7,10)             106.3426         estimate D2E/DX2                !
 ! A25   A(9,7,10)             114.6302         estimate D2E/DX2                !
 ! A26   A(7,8,11)             116.9683         estimate D2E/DX2                !
 ! A27   A(7,10,35)            114.6672         estimate D2E/DX2                !
 ! A28   A(20,19,21)           123.0038         estimate D2E/DX2                !
 ! A29   A(20,19,22)           113.1972         estimate D2E/DX2                !
 ! A30   A(21,19,22)           123.7821         estimate D2E/DX2                !
 ! A31   A(19,20,29)           109.856          estimate D2E/DX2                !
 ! A32   A(19,22,23)           109.4            estimate D2E/DX2                !
 ! A33   A(19,22,30)           106.8097         estimate D2E/DX2                !
 ! A34   A(19,22,31)           109.5697         estimate D2E/DX2                !
 ! A35   A(23,22,30)           109.8432         estimate D2E/DX2                !
 ! A36   A(23,22,31)           114.2002         estimate D2E/DX2                !
 ! A37   A(30,22,31)           106.7383         estimate D2E/DX2                !
 ! A38   A(22,23,24)           116.4855         estimate D2E/DX2                !
 ! A39   A(22,23,32)           109.6411         estimate D2E/DX2                !
 ! A40   A(24,23,32)           109.2196         estimate D2E/DX2                !
 ! A41   A(23,24,25)           106.1576         estimate D2E/DX2                !
 ! A42   A(23,24,33)           108.9137         estimate D2E/DX2                !
 ! A43   A(23,24,34)           113.3841         estimate D2E/DX2                !
 ! A44   A(25,24,33)           107.926          estimate D2E/DX2                !
 ! A45   A(25,24,34)           111.491          estimate D2E/DX2                !
 ! A46   A(33,24,34)           108.7979         estimate D2E/DX2                !
 ! A47   A(24,25,26)           104.0952         estimate D2E/DX2                !
 ! A48   A(24,25,27)           110.6863         estimate D2E/DX2                !
 ! A49   A(24,25,28)           103.7186         estimate D2E/DX2                !
 ! A50   A(26,25,27)           116.5127         estimate D2E/DX2                !
 ! A51   A(26,25,28)           109.9074         estimate D2E/DX2                !
 ! A52   A(27,25,28)           110.9636         estimate D2E/DX2                !
 ! A53   A(12,26,25)           116.0205         estimate D2E/DX2                !
 ! A54   A(11,27,25)           121.7211         estimate D2E/DX2                !
 ! A55   A(25,28,36)           112.6103         estimate D2E/DX2                !
 ! A56   L(8,11,27,1,-1)       177.7903         estimate D2E/DX2                !
 ! A57   L(8,11,27,1,-2)       181.0944         estimate D2E/DX2                !
 ! D1    D(4,1,2,3)           -167.1908         estimate D2E/DX2                !
 ! D2    D(4,1,2,15)           -41.3916         estimate D2E/DX2                !
 ! D3    D(4,1,2,16)            73.9011         estimate D2E/DX2                !
 ! D4    D(5,1,2,3)             14.2138         estimate D2E/DX2                !
 ! D5    D(5,1,2,15)           140.013          estimate D2E/DX2                !
 ! D6    D(5,1,2,16)          -104.6942         estimate D2E/DX2                !
 ! D7    D(2,1,4,13)          -178.1324         estimate D2E/DX2                !
 ! D8    D(5,1,4,13)             0.4764         estimate D2E/DX2                !
 ! D9    D(1,2,3,6)           -148.7796         estimate D2E/DX2                !
 ! D10   D(1,2,3,14)            85.1609         estimate D2E/DX2                !
 ! D11   D(15,2,3,6)            88.211          estimate D2E/DX2                !
 ! D12   D(15,2,3,14)          -37.8485         estimate D2E/DX2                !
 ! D13   D(16,2,3,6)           -31.8256         estimate D2E/DX2                !
 ! D14   D(16,2,3,14)         -157.8851         estimate D2E/DX2                !
 ! D15   D(2,3,6,7)            160.2735         estimate D2E/DX2                !
 ! D16   D(2,3,6,17)           -76.4635         estimate D2E/DX2                !
 ! D17   D(2,3,6,18)            45.0224         estimate D2E/DX2                !
 ! D18   D(14,3,6,7)           -73.7961         estimate D2E/DX2                !
 ! D19   D(14,3,6,17)           49.4669         estimate D2E/DX2                !
 ! D20   D(14,3,6,18)          170.9528         estimate D2E/DX2                !
 ! D21   D(3,6,7,8)             84.8546         estimate D2E/DX2                !
 ! D22   D(3,6,7,9)            -41.38           estimate D2E/DX2                !
 ! D23   D(3,6,7,10)          -162.1867         estimate D2E/DX2                !
 ! D24   D(17,6,7,8)           -40.3686         estimate D2E/DX2                !
 ! D25   D(17,6,7,9)          -166.6032         estimate D2E/DX2                !
 ! D26   D(17,6,7,10)           72.5901         estimate D2E/DX2                !
 ! D27   D(18,6,7,8)          -158.2249         estimate D2E/DX2                !
 ! D28   D(18,6,7,9)            75.5405         estimate D2E/DX2                !
 ! D29   D(18,6,7,10)          -45.2662         estimate D2E/DX2                !
 ! D30   D(6,7,8,11)          -105.2683         estimate D2E/DX2                !
 ! D31   D(9,7,8,11)            16.3837         estimate D2E/DX2                !
 ! D32   D(10,7,8,11)          144.4521         estimate D2E/DX2                !
 ! D33   D(6,7,10,35)         -143.0814         estimate D2E/DX2                !
 ! D34   D(8,7,10,35)          -26.8161         estimate D2E/DX2                !
 ! D35   D(9,7,10,35)          101.5084         estimate D2E/DX2                !
 ! D36   D(7,8,27,25)           42.5375         estimate D2E/DX2                !
 ! D37   D(21,19,20,29)          0.7116         estimate D2E/DX2                !
 ! D38   D(22,19,20,29)       -177.8437         estimate D2E/DX2                !
 ! D39   D(20,19,22,23)       -166.9125         estimate D2E/DX2                !
 ! D40   D(20,19,22,30)         74.2497         estimate D2E/DX2                !
 ! D41   D(20,19,22,31)        -41.0082         estimate D2E/DX2                !
 ! D42   D(21,19,22,23)         14.5452         estimate D2E/DX2                !
 ! D43   D(21,19,22,30)       -104.2926         estimate D2E/DX2                !
 ! D44   D(21,19,22,31)        140.4495         estimate D2E/DX2                !
 ! D45   D(19,22,23,24)       -146.8314         estimate D2E/DX2                !
 ! D46   D(19,22,23,32)         88.5341         estimate D2E/DX2                !
 ! D47   D(30,22,23,24)        -29.8925         estimate D2E/DX2                !
 ! D48   D(30,22,23,32)       -154.527          estimate D2E/DX2                !
 ! D49   D(31,22,23,24)         89.9663         estimate D2E/DX2                !
 ! D50   D(31,22,23,32)        -34.6682         estimate D2E/DX2                !
 ! D51   D(22,23,24,25)        164.2736         estimate D2E/DX2                !
 ! D52   D(22,23,24,33)         48.2969         estimate D2E/DX2                !
 ! D53   D(22,23,24,34)        -72.986          estimate D2E/DX2                !
 ! D54   D(32,23,24,25)        -70.8775         estimate D2E/DX2                !
 ! D55   D(32,23,24,33)        173.1458         estimate D2E/DX2                !
 ! D56   D(32,23,24,34)         51.8629         estimate D2E/DX2                !
 ! D57   D(23,24,25,26)        -49.3695         estimate D2E/DX2                !
 ! D58   D(23,24,25,27)         76.5595         estimate D2E/DX2                !
 ! D59   D(23,24,25,28)       -164.3731         estimate D2E/DX2                !
 ! D60   D(33,24,25,26)         67.2726         estimate D2E/DX2                !
 ! D61   D(33,24,25,27)       -166.7985         estimate D2E/DX2                !
 ! D62   D(33,24,25,28)        -47.7311         estimate D2E/DX2                !
 ! D63   D(34,24,25,26)       -173.2984         estimate D2E/DX2                !
 ! D64   D(34,24,25,27)        -47.3694         estimate D2E/DX2                !
 ! D65   D(34,24,25,28)         71.6979         estimate D2E/DX2                !
 ! D66   D(24,25,26,12)         43.6969         estimate D2E/DX2                !
 ! D67   D(27,25,26,12)        -78.4627         estimate D2E/DX2                !
 ! D68   D(28,25,26,12)        154.2445         estimate D2E/DX2                !
 ! D69   D(24,25,27,11)       -111.2653         estimate D2E/DX2                !
 ! D70   D(26,25,27,11)          7.3727         estimate D2E/DX2                !
 ! D71   D(28,25,27,11)        134.1439         estimate D2E/DX2                !
 ! D72   D(24,25,28,36)       -121.856          estimate D2E/DX2                !
 ! D73   D(26,25,28,36)        127.3493         estimate D2E/DX2                !
 ! D74   D(27,25,28,36)         -2.9791         estimate D2E/DX2                !
 --------------------------------------------------------------------------------
 Trust Radius=3.00D-01 FncErr=1.00D-07 GrdErr=1.00D-06 EigMax=2.50D+02 EigMin=1.00D-04
 Number of steps in this run=    176 maximum allowed number of steps=    216.
 GradGradGradGradGradGradGradGradGradGradGradGradGradGradGradGradGradGrad

                          Input orientation:                          
 ---------------------------------------------------------------------
 Center     Atomic      Atomic             Coordinates (Angstroms)
 Number     Number       Type             X           Y           Z
 ---------------------------------------------------------------------
      1          6           0       -1.852028   -2.408780   -1.581723
      2          6           0       -2.865728   -1.344499   -1.200629
      3          7           0       -2.169081   -0.198717   -0.621291
      4          8           0       -2.361754   -3.355923   -2.351234
      5          8           0       -0.685170   -2.412562   -1.197752
      6          6           0       -2.899476    0.565075    0.402609
      7         15           0       -1.658203    1.516031    1.359897
      8          8           0       -1.322502    2.868768    0.647532
      9          8           0       -0.467368    0.593913    1.588046
     10          8           0       -2.472974    1.895109    2.686390
     11          1           0       -0.388478    2.930784    0.148345
     12         25           0        0.095179   -0.692303   -0.012347
     13          1           0       -1.679863   -4.030671   -2.543999
     14          1           0       -1.850190    0.426037   -1.365000
     15          1           0       -3.484993   -1.100781   -2.072736
     16          1           0       -3.531885   -1.793680   -0.454028
     17          1           0       -3.674663    1.228142   -0.000646
     18          1           0       -3.370840   -0.131315    1.103515
     19          6           0        2.277408   -2.064863    1.566645
     20          8           0        2.943087   -2.910026    2.335925
     21          8           0        1.108931   -2.243826    1.230177
     22          6           0        3.112481   -0.879261    1.118745
     23          7           0        2.237232    0.143370    0.548376
     24          6           0        2.797580    0.948638   -0.557538
     25         15           0        1.366329    1.776413   -1.364361
     26          8           0        0.354812    0.635783   -1.596604
     27          8           0        0.883452    2.953246   -0.527052
     28          8           0        1.961929    2.279212   -2.778010
     29          1           0        2.371516   -3.669780    2.567207
     30          1           0        3.802463   -1.249357    0.350656
     31          1           0        3.729455   -0.527718    1.954666
     32          1           0        1.911869    0.768226    1.287988
     33          1           0        3.254390    0.276103   -1.289920
     34          1           0        3.549348    1.676101   -0.228719
     35          1           0       -2.278448    2.779677    3.043945
     36          1           0        1.879781    3.241239   -2.897584
 ---------------------------------------------------------------------
                    Distance matrix (angstroms):
                    1          2          3          4          5
     1  C    0.000000
     2  C    1.518392   0.000000
     3  N    2.430499   1.460741   0.000000
     4  O    1.322516   2.371436   3.605243   0.000000
     5  O    1.228416   2.428086   2.726795   2.243075   0.000000
     6  C    3.725390   2.493588   1.471471   4.821517   4.041118
     7  P    4.908649   4.024555   2.669544   6.164691   4.787714
     8  O    5.753476   4.852717   3.425795   6.987090   5.630605
     9  O    4.580489   4.157677   2.899183   5.891335   4.104510
    10  O    6.093096   5.075256   3.926476   7.277593   6.069500
    11  H    5.800522   5.121967   3.681938   7.047298   5.518275
    12  Mn   3.033290   3.256431   2.396104   4.312978   2.230117
    13  H    1.893712   3.228999   4.315090   0.978477   2.328105
    14  H    2.843089   2.047714   1.022307   3.941773   3.072928
    15  H    2.149077   1.097023   2.156858   2.534738   3.213313
    16  H    2.114701   1.096787   2.104546   2.721985   3.006647
    17  H    4.364516   2.951747   2.165157   5.316262   4.860541
    18  H    3.834597   2.652552   2.103264   4.832353   4.208651
    19  C    5.204108   5.884605   5.295360   6.207933   4.066897
    20  O    6.212273   6.978568   6.498506   7.092927   5.089065
    21  O    4.086719   4.745052   4.284364   5.109689   3.023592
    22  C    5.854768   6.429224   5.602300   6.938433   4.705244
    23  N    5.269994   5.595799   4.571733   6.465560   4.257016
    24  C    5.825810   6.143704   5.097864   6.954518   4.882324
    25  P    5.284023   5.260913   4.117332   6.419766   4.667325
    26  O    3.760282   3.801340   2.831548   4.887015   3.245466
    27  O    6.111179   5.742880   4.388817   7.325614   5.630481
    28  O    6.160733   6.239044   5.277955   7.115555   5.614008
    29  H    6.053268   6.858005   6.544602   6.833257   5.009873
    30  H    6.087004   6.846919   6.140673   7.052332   4.887684
    31  H    6.870035   7.356592   6.444883   7.977615   5.742759
    32  H    5.700485   5.786385   4.608089   6.965371   4.800097
    33  H    5.776612   6.331679   5.485121   6.771933   4.770487
    34  H    6.905920   7.156943   6.030712   8.047823   5.965512
    35  H    6.964102   5.947279   4.724061   8.170709   6.891290
    36  H    6.897869   6.813846   5.779973   7.862039   6.436915
                    6          7          8          9         10
     6  C    0.000000
     7  P    1.833433   0.000000
     8  O    2.802470   1.565266   0.000000
     9  O    2.705780   1.523300   2.605914   0.000000
    10  O    2.677041   1.602228   2.535457   2.630956   0.000000
    11  H    3.459240   2.254238   1.060865   2.745894   3.443751
    12  Mn   3.274316   3.135944   3.889278   2.128866   4.535779
    13  H    5.593821   6.782829   7.610245   6.319075   7.943605
    14  H    2.060285   2.941090   3.208687   3.265098   4.354285
    15  H    3.040598   4.686986   5.275750   5.037795   5.713914
    16  H    2.587951   4.213691   5.275720   4.388841   4.958899
    17  H    1.096899   2.449504   2.940145   3.634960   3.018123
    18  H    1.094720   2.390106   3.661162   3.031646   2.723610
    19  C    5.922135   5.324902   6.176150   3.821432   6.285009
    20  O    7.067501   6.458674   7.378372   4.946525   7.248852
    21  O    4.964084   4.670159   5.691218   3.265816   5.664043
    22  C    6.224354   5.343688   5.825704   3.899461   6.430548
    23  N    5.156050   4.209178   4.484343   2.932365   5.461295
    24  C    5.790117   4.883902   4.702570   3.922913   6.260800
    25  P    4.773533   4.078870   3.531397   3.671166   5.582377
    26  O    3.819980   3.683472   3.582702   3.289336   5.284536
    27  O    4.569264   3.476518   2.500603   3.444533   4.765655
    28  O    6.057050   5.550682   4.782195   5.272965   7.048089
    29  H    7.099495   6.677489   7.751356   5.215082   7.379110
    30  H    6.943403   6.203612   6.581211   4.812507   7.397596
    31  H    6.895346   5.792885   6.226314   4.359563   6.698928
    32  H    4.896346   3.648259   3.909426   2.404410   4.738380
    33  H    6.388914   5.717737   5.605672   4.715419   7.157857
    34  H    6.574214   5.446826   5.091679   4.539359   6.694341
    35  H    3.502398   2.194885   2.581582   3.190175   0.973729
    36  H    6.394875   5.798260   4.791784   5.712996   7.206894
                   11         12         13         14         15
    11  H    0.000000
    12  Mn   3.658758   0.000000
    13  H    7.574843   4.550245   0.000000
    14  H    3.271173   2.620079   4.613165   0.000000
    15  H    5.547533   4.150866   3.473448   2.346198   0.000000
    16  H    5.706524   3.816242   3.578001   2.930036   1.761398
    17  H    3.704080   4.230834   6.172761   2.415272   3.123045
    18  H    4.379873   3.684174   5.600779   2.952386   3.322869
    19  C    5.837381   3.023121   6.035047   5.642357   6.883300
    20  O    7.071060   4.306188   6.814776   6.913874   8.001867
    21  O    5.494469   2.231319   5.021414   4.755997   5.772342
    22  C    5.264488   3.227760   6.805413   5.700955   7.332209
    23  N    3.850202   2.366675   6.506077   4.521938   6.415762
    24  C    3.818133   3.208254   6.984772   4.746248   6.779872
    25  P    2.588475   3.088417   6.662811   3.488483   5.684661
    26  O    2.977308   2.083528   5.178151   2.227031   4.241045
    27  O    1.440302   3.765146   7.708032   3.815985   6.156914
    28  O    3.809529   4.468058   7.289172   4.468008   6.449087
    29  H    7.552211   4.549854   6.532100   7.075362   7.901108
    30  H    5.922709   3.766435   6.794898   6.140268   7.681270
    31  H    5.672865   4.135721   7.859350   6.562184   8.282308
    32  H    3.356641   2.669153   7.114357   4.616116   6.626747
    33  H    4.731429   3.542685   6.668423   5.107333   6.922997
    34  H    4.150046   4.193738   8.079135   5.657632   7.784178
    35  H    3.461115   5.199007   8.829737   5.016156   6.534074
    36  H    3.810389   5.194434   8.104120   4.918014   6.950850
                   16         17         18         19         20
    16  H    0.000000
    17  H    3.058978   0.000000
    18  H    2.283710   1.777527   0.000000
    19  C    6.156667   6.980504   5.987971   0.000000
    20  O    7.138300   8.147307   7.007548   1.322581   0.000000
    21  O    4.957454   6.037571   4.954502   1.229055   2.242906
    22  C    6.888931   7.194408   6.526339   1.517766   2.373653
    23  N    6.167632   6.035616   5.642172   2.432032   3.607879
    24  C    6.898778   6.502168   6.478796   3.723429   4.825203
    25  P    6.129173   5.250898   5.671914   4.916936   6.175839
    26  O    4.723789   4.374316   4.664715   4.582140   5.893785
    27  O    6.483351   4.901990   5.502024   5.613208   6.842272
    28  O    7.222972   6.371002   7.022485   6.151954   7.351407
    29  H    6.891861   8.193887   6.902012   1.893604   0.978474
    30  H    7.398409   7.884721   7.298841   2.114112   2.727204
    31  H    7.754451   7.856669   7.162107   2.149840   2.537543
    32  H    6.263580   5.751647   5.361923   2.870133   3.961202
    33  H    7.143965   7.111988   7.056074   3.820285   4.836846
    34  H    7.888853   7.241480   7.275342   4.340043   5.289377
    35  H    5.892581   3.691370   3.665033   6.812328   7.754897
    36  H    7.785082   6.580020   7.412957   6.945658   8.146060
                   21         22         23         24         25
    21  O    0.000000
    22  C    2.426657   0.000000
    23  N    2.727017   1.461901   0.000000
    24  C    4.029800   2.500060   1.478341   0.000000
    25  P    4.791681   4.033294   2.661553   1.839743   0.000000
    26  O    4.105062   4.156106   2.896017   2.672948   1.542122
    27  O    5.490743   4.729200   3.299193   2.771871   1.522891
    28  O    6.103363   5.146302   3.962632   2.720153   1.614295
    29  H    2.327039   3.230180   4.316691   5.592436   6.791806
    30  H    3.002938   1.096817   2.104454   2.581818   4.246329
    31  H    3.215129   1.096814   2.157484   3.059278   4.680739
    32  H    3.117773   2.045562   1.021436   2.054993   2.889465
    33  H    4.159799   2.675196   2.105127   1.094240   2.412725
    34  H    4.842504   2.921710   2.162126   1.096576   2.462786
    35  H    6.324530   6.793845   5.793906   6.487637   5.807246
    36  H    6.907862   5.884638   4.647494   3.402086   2.181770
                   26         27         28         29         30
    26  O    0.000000
    27  O    2.606538   0.000000
    28  O    2.584454   2.585391   0.000000
    29  H    6.319990   7.460110   8.008096   0.000000
    30  H    4.385415   5.191615   5.062303   3.580384   0.000000
    31  H    5.035222   5.135734   5.779379   3.477320   1.760380
    32  H    3.280676   3.020981   4.337963   4.641505   2.919516
    33  H    2.937852   3.656557   2.810216   5.588102   2.306274
    34  H    3.627455   2.971044   3.063091   6.146782   2.992999
    35  H    5.750220   4.772814   7.219862   7.965233   7.775885
    36  H    3.287321   2.587476   0.972904   8.824280   5.866278
                   31         32         33         34         35
    31  H    0.000000
    32  H    2.329710   0.000000
    33  H    3.376263   2.947907   0.000000
    34  H    3.107479   2.409559   1.781331   0.000000
    35  H    6.944083   4.968709   7.460734   6.774320   0.000000
    36  H    6.416436   4.861670   3.642274   3.515672   7.266751
                   36
    36  H    0.000000
 Stoichiometry    C6H15MnN2O10P2(1+,6)
 Framework group  C1[X(C6H15MnN2O10P2)]
 Deg. of freedom   102
 Full point group                 C1      NOp   1
 Largest Abelian subgroup         C1      NOp   1
 Largest concise Abelian subgroup C1      NOp   1
                         Standard orientation:                         
 ---------------------------------------------------------------------
 Center     Atomic      Atomic             Coordinates (Angstroms)
 Number     Number       Type             X           Y           Z
 ---------------------------------------------------------------------
      1          6           0       -1.720520    2.661123    1.333075
      2          6           0       -2.805077    1.701442    0.876718
      3          7           0       -2.187713    0.470106    0.390471
      4          8           0       -2.192774    3.680661    2.030619
      5          8           0       -0.529434    2.527258    1.064003
      6          6           0       -2.898266   -0.241062   -0.684043
      7         15           0       -1.684943   -1.349064   -1.497467
      8          8           0       -1.569181   -2.707909   -0.729224
      9          8           0       -0.383446   -0.568249   -1.627376
     10          8           0       -2.408024   -1.678011   -2.888900
     11          1           0       -0.698891   -2.855237   -0.140731
     12         25           0        0.164411    0.697652   -0.005828
     13          1           0       -1.461776    4.283378    2.275141
     14          1           0       -2.011184   -0.162582    1.173832
     15          1           0       -3.526813    1.552567    1.689363
     16          1           0       -3.344304    2.197069    0.060305
     17          1           0       -3.776409   -0.804025   -0.344742
     18          1           0       -3.221777    0.480570   -1.441010
     19          6           0        2.623732    1.778066   -1.392805
     20          8           0        3.448091    2.522699   -2.110561
     21          8           0        1.455688    2.092258   -1.174786
     22          6           0        3.276933    0.523367   -0.842647
     23          7           0        2.244364   -0.381020   -0.339617
     24          6           0        2.605763   -1.208168    0.831156
     25         15           0        1.022316   -1.851729    1.511728
     26          8           0        0.125528   -0.602043    1.622168
     27          8           0        0.493502   -2.994399    0.655073
     28          8           0        1.423000   -2.372791    2.986141
     29          1           0        2.988203    3.332356   -2.411177
     30          1           0        3.928135    0.839928   -0.018796
     31          1           0        3.927292    0.082081   -1.607696
     32          1           0        1.923121   -0.989237   -1.094738
     33          1           0        3.063004   -0.566985    1.590877
     34          1           0        3.300247   -2.022178    0.591243
     35          1           0       -2.279519   -2.588845   -3.208298
     36          1           0        1.224279   -3.316254    3.116253
 ---------------------------------------------------------------------
 Rotational constants (GHZ):           0.2343524           0.2290487           0.1853182
 Standard basis: def2TZVP (5D, 7F)
 There are   874 symmetry adapted cartesian basis functions of A   symmetry.
 There are   767 symmetry adapted basis functions of A   symmetry.
   767 basis functions,  1278 primitive gaussians,   874 cartesian basis functions
   102 alpha electrons       97 beta electrons
       nuclear repulsion energy      2906.6931226592 Hartrees.
 NAtoms=   36 NActive=   36 NUniq=   36 SFac= 1.00D+00 NAtFMM=   60 NAOKFM=F Big=F
 Integral buffers will be    131072 words long.
 Raffenetti 2 integral format.
 Two-electron integral symmetry is turned on.
 Nuclear repulsion after empirical dispersion term =     2906.6848746297 Hartrees.
 One-electron integrals computed using PRISM.
   1 Symmetry operations used in ECPInt.
 ECPInt:  NShTT=   44850 NPrTT=  146642 LenC2=   38536 LenP2D=   85591.
 LDataN:  DoStor=T MaxTD1= 6 Len=  172
 NBasis=   767 RedAO= T EigKep=  2.41D-04  NBF=   767
 NBsUse=   767 1.00D-06 EigRej= -1.00D+00 NBFU=   767
 ExpMin= 3.93D-02 ExpMax= 2.77D+05 ExpMxC= 2.68D+03 IAcc=3 IRadAn=         5 AccDes= 0.00D+00
 Harris functional with IExCor= 1009 and IRadAn=       5 diagonalized for initial guess.
 HarFok:  IExCor= 1009 AccDes= 0.00D+00 IRadAn=         5 IDoV= 1 UseB2=F ITyADJ=14
 ICtDFT=  3500011 ScaDFX=  1.000000  1.000000  1.000000  1.000000
 FoFCou: FMM=F IPFlag=           0 FMFlag=      100000 FMFlg1=           0
         NFxFlg=           0 DoJE=T BraDBF=F KetDBF=T FulRan=T
         wScrn=  0.000000 ICntrl=       500 IOpCl=  0 I1Cent=   200000004 NGrid=           0
         NMat0=    1 NMatS0=      1 NMatT0=    0 NMatD0=    1 NMtDS0=    0 NMtDT0=    0
 Petite list used in FoFCou.
 Initial guess <Sx>= 0.0000 <Sy>= 0.0000 <Sz>= 2.5000 <S**2>= 8.7500 S= 2.5000
 Requested convergence on RMS density matrix=1.00D-08 within  32 cycles.
 Requested convergence on MAX density matrix=1.00D-06.
 Requested convergence on             energy=1.00D-06.
 No special actions if energy rises.
 SCF Done:  E(UM06) =  -2933.20174511     A.U. after   17 cycles
            NFock= 17  Conv=0.60D-08     -V/T= 2.0028
 <Sx>= 0.0000 <Sy>= 0.0000 <Sz>= 2.5000 <S**2>= 8.7558 S= 2.5010
 <L.S>= 0.000000000000E+00
 Annihilation of the first spin contaminant:
 S**2 before annihilation     8.7558,   after     8.7500
 QCSCF skips out because SCF is already converged.

 **********************************************************************

            Population analysis using the SCF Density.

 **********************************************************************

 Orbital symmetries:
 Alpha Orbitals:
       Occupied  (A) (A) (A) (A) (A) (A) (A) (A) (A) (A) (A) (A)
                 (A) (A) (A) (A) (A) (A) (A) (A) (A) (A) (A) (A)
                 (A) (A) (A) (A) (A) (A) (A) (A) (A) (A) (A) (A)
                 (A) (A) (A) (A) (A) (A) (A) (A) (A) (A) (A) (A)
                 (A) (A) (A) (A) (A) (A) (A) (A) (A) (A) (A) (A)
                 (A) (A) (A) (A) (A) (A) (A) (A) (A) (A) (A) (A)
                 (A) (A) (A) (A) (A) (A) (A) (A) (A) (A) (A) (A)
                 (A) (A) (A) (A) (A) (A) (A) (A) (A) (A) (A) (A)
                 (A) (A) (A) (A) (A) (A)
       Virtual   (A) (A) (A) (A) (A) (A) (A) (A) (A) (A) (A) (A)
                 (A) (A) (A) (A) (A) (A) (A) (A) (A) (A) (A) (A)
                 (A) (A) (A) (A) (A) (A) (A) (A) (A) (A) (A) (A)
                 (A) (A) (A) (A) (A) (A) (A) (A) (A) (A) (A) (A)
                 (A) (A) (A) (A) (A) (A) (A) (A) (A) (A) (A) (A)
                 (A) (A) (A) (A) (A) (A) (A) (A) (A) (A) (A) (A)
                 (A) (A) (A) (A) (A) (A) (A) (A) (A) (A) (A) (A)
                 (A) (A) (A) (A) (A) (A) (A) (A) (A) (A) (A) (A)
                 (A) (A) (A) (A) (A) (A) (A) (A) (A) (A) (A) (A)
                 (A) (A) (A) (A) (A) (A) (A) (A) (A) (A) (A) (A)
                 (A) (A) (A) (A) (A) (A) (A) (A) (A) (A) (A) (A)
                 (A) (A) (A) (A) (A) (A) (A) (A) (A) (A) (A) (A)
                 (A) (A) (A) (A) (A) (A) (A) (A) (A) (A) (A) (A)
                 (A) (A) (A) (A) (A) (A) (A) (A) (A) (A) (A) (A)
                 (A) (A) (A) (A) (A) (A) (A) (A) (A) (A) (A) (A)
                 (A) (A) (A) (A) (A) (A) (A) (A) (A) (A) (A) (A)
                 (A) (A) (A) (A) (A) (A) (A) (A) (A) (A) (A) (A)
                 (A) (A) (A) (A) (A) (A) (A) (A) (A) (A) (A) (A)
                 (A) (A) (A) (A) (A) (A) (A) (A) (A) (A) (A) (A)
                 (A) (A) (A) (A) (A) (A) (A) (A) (A) (A) (A) (A)
                 (A) (A) (A) (A) (A) (A) (A) (A) (A) (A) (A) (A)
                 (A) (A) (A) (A) (A) (A) (A) (A) (A) (A) (A) (A)
                 (A) (A) (A) (A) (A) (A) (A) (A) (A) (A) (A) (A)
                 (A) (A) (A) (A) (A) (A) (A) (A) (A) (A) (A) (A)
                 (A) (A) (A) (A) (A) (A) (A) (A) (A) (A) (A) (A)
                 (A) (A) (A) (A) (A) (A) (A) (A) (A) (A) (A) (A)
                 (A) (A) (A) (A) (A) (A) (A) (A) (A) (A) (A) (A)
                 (A) (A) (A) (A) (A) (A) (A) (A) (A) (A) (A) (A)
                 (A) (A) (A) (A) (A) (A) (A) (A) (A) (A) (A) (A)
                 (A) (A) (A) (A) (A) (A) (A) (A) (A) (A) (A) (A)
                 (A) (A) (A) (A) (A) (A) (A) (A) (A) (A) (A) (A)
                 (A) (A) (A) (A) (A) (A) (A) (A) (A) (A) (A) (A)
                 (A) (A) (A) (A) (A) (A) (A) (A) (A) (A) (A) (A)
                 (A) (A) (A) (A) (A) (A) (A) (A) (A) (A) (A) (A)
                 (A) (A) (A) (A) (A) (A) (A) (A) (A) (A) (A) (A)
                 (A) (A) (A) (A) (A) (A) (A) (A) (A) (A) (A) (A)
                 (A) (A) (A) (A) (A) (A) (A) (A) (A) (A) (A) (A)
                 (A) (A) (A) (A) (A) (A) (A) (A) (A) (A) (A) (A)
                 (A) (A) (A) (A) (A) (A) (A) (A) (A) (A) (A) (A)
                 (A) (A) (A) (A) (A) (A) (A) (A) (A) (A) (A) (A)
                 (A) (A) (A) (A) (A) (A) (A) (A) (A) (A) (A) (A)
                 (A) (A) (A) (A) (A) (A) (A) (A) (A) (A) (A) (A)
                 (A) (A) (A) (A) (A) (A) (A) (A) (A) (A) (A) (A)
                 (A) (A) (A) (A) (A) (A) (A) (A) (A) (A) (A) (A)
                 (A) (A) (A) (A) (A) (A) (A) (A) (A) (A) (A) (A)
                 (A) (A) (A) (A) (A) (A) (A) (A) (A) (A) (A) (A)
                 (A) (A) (A) (A) (A) (A) (A) (A) (A) (A) (A) (A)
                 (A) (A) (A) (A) (A) (A) (A) (A) (A) (A) (A) (A)
                 (A) (A) (A) (A) (A) (A) (A) (A) (A) (A) (A) (A)
                 (A) (A) (A) (A) (A) (A) (A) (A) (A) (A) (A) (A)
                 (A) (A) (A) (A) (A) (A) (A) (A) (A) (A) (A) (A)
                 (A) (A) (A) (A) (A) (A) (A) (A) (A) (A) (A) (A)
                 (A) (A) (A) (A) (A) (A) (A) (A) (A) (A) (A) (A)
                 (A) (A) (A) (A) (A) (A) (A) (A) (A) (A) (A) (A)
                 (A) (A) (A) (A) (A) (A) (A) (A) (A) (A) (A) (A)
                 (A) (A) (A) (A) (A)
 Beta  Orbitals:
       Occupied  (A) (A) (A) (A) (A) (A) (A) (A) (A) (A) (A) (A)
                 (A) (A) (A) (A) (A) (A) (A) (A) (A) (A) (A) (A)
                 (A) (A) (A) (A) (A) (A) (A) (A) (A) (A) (A) (A)
                 (A) (A) (A) (A) (A) (A) (A) (A) (A) (A) (A) (A)
                 (A) (A) (A) (A) (A) (A) (A) (A) (A) (A) (A) (A)
                 (A) (A) (A) (A) (A) (A) (A) (A) (A) (A) (A) (A)
                 (A) (A) (A) (A) (A) (A) (A) (A) (A) (A) (A) (A)
                 (A) (A) (A) (A) (A) (A) (A) (A) (A) (A) (A) (A)
                 (A)
       Virtual   (A) (A) (A) (A) (A) (A) (A) (A) (A) (A) (A) (A)
                 (A) (A) (A) (A) (A) (A) (A) (A) (A) (A) (A) (A)
                 (A) (A) (A) (A) (A) (A) (A) (A) (A) (A) (A) (A)
                 (A) (A) (A) (A) (A) (A) (A) (A) (A) (A) (A) (A)
                 (A) (A) (A) (A) (A) (A) (A) (A) (A) (A) (A) (A)
                 (A) (A) (A) (A) (A) (A) (A) (A) (A) (A) (A) (A)
                 (A) (A) (A) (A) (A) (A) (A) (A) (A) (A) (A) (A)
                 (A) (A) (A) (A) (A) (A) (A) (A) (A) (A) (A) (A)
                 (A) (A) (A) (A) (A) (A) (A) (A) (A) (A) (A) (A)
                 (A) (A) (A) (A) (A) (A) (A) (A) (A) (A) (A) (A)
                 (A) (A) (A) (A) (A) (A) (A) (A) (A) (A) (A) (A)
                 (A) (A) (A) (A) (A) (A) (A) (A) (A) (A) (A) (A)
                 (A) (A) (A) (A) (A) (A) (A) (A) (A) (A) (A) (A)
                 (A) (A) (A) (A) (A) (A) (A) (A) (A) (A) (A) (A)
                 (A) (A) (A) (A) (A) (A) (A) (A) (A) (A) (A) (A)
                 (A) (A) (A) (A) (A) (A) (A) (A) (A) (A) (A) (A)
                 (A) (A) (A) (A) (A) (A) (A) (A) (A) (A) (A) (A)
                 (A) (A) (A) (A) (A) (A) (A) (A) (A) (A) (A) (A)
                 (A) (A) (A) (A) (A) (A) (A) (A) (A) (A) (A) (A)
                 (A) (A) (A) (A) (A) (A) (A) (A) (A) (A) (A) (A)
                 (A) (A) (A) (A) (A) (A) (A) (A) (A) (A) (A) (A)
                 (A) (A) (A) (A) (A) (A) (A) (A) (A) (A) (A) (A)
                 (A) (A) (A) (A) (A) (A) (A) (A) (A) (A) (A) (A)
                 (A) (A) (A) (A) (A) (A) (A) (A) (A) (A) (A) (A)
                 (A) (A) (A) (A) (A) (A) (A) (A) (A) (A) (A) (A)
                 (A) (A) (A) (A) (A) (A) (A) (A) (A) (A) (A) (A)
                 (A) (A) (A) (A) (A) (A) (A) (A) (A) (A) (A) (A)
                 (A) (A) (A) (A) (A) (A) (A) (A) (A) (A) (A) (A)
                 (A) (A) (A) (A) (A) (A) (A) (A) (A) (A) (A) (A)
                 (A) (A) (A) (A) (A) (A) (A) (A) (A) (A) (A) (A)
                 (A) (A) (A) (A) (A) (A) (A) (A) (A) (A) (A) (A)
                 (A) (A) (A) (A) (A) (A) (A) (A) (A) (A) (A) (A)
                 (A) (A) (A) (A) (A) (A) (A) (A) (A) (A) (A) (A)
                 (A) (A) (A) (A) (A) (A) (A) (A) (A) (A) (A) (A)
                 (A) (A) (A) (A) (A) (A) (A) (A) (A) (A) (A) (A)
                 (A) (A) (A) (A) (A) (A) (A) (A) (A) (A) (A) (A)
                 (A) (A) (A) (A) (A) (A) (A) (A) (A) (A) (A) (A)
                 (A) (A) (A) (A) (A) (A) (A) (A) (A) (A) (A) (A)
                 (A) (A) (A) (A) (A) (A) (A) (A) (A) (A) (A) (A)
                 (A) (A) (A) (A) (A) (A) (A) (A) (A) (A) (A) (A)
                 (A) (A) (A) (A) (A) (A) (A) (A) (A) (A) (A) (A)
                 (A) (A) (A) (A) (A) (A) (A) (A) (A) (A) (A) (A)
                 (A) (A) (A) (A) (A) (A) (A) (A) (A) (A) (A) (A)
                 (A) (A) (A) (A) (A) (A) (A) (A) (A) (A) (A) (A)
                 (A) (A) (A) (A) (A) (A) (A) (A) (A) (A) (A) (A)
                 (A) (A) (A) (A) (A) (A) (A) (A) (A) (A) (A) (A)
                 (A) (A) (A) (A) (A) (A) (A) (A) (A) (A) (A) (A)
                 (A) (A) (A) (A) (A) (A) (A) (A) (A) (A) (A) (A)
                 (A) (A) (A) (A) (A) (A) (A) (A) (A) (A) (A) (A)
                 (A) (A) (A) (A) (A) (A) (A) (A) (A) (A) (A) (A)
                 (A) (A) (A) (A) (A) (A) (A) (A) (A) (A) (A) (A)
                 (A) (A) (A) (A) (A) (A) (A) (A) (A) (A) (A) (A)
                 (A) (A) (A) (A) (A) (A) (A) (A) (A) (A) (A) (A)
                 (A) (A) (A) (A) (A) (A) (A) (A) (A) (A) (A) (A)
                 (A) (A) (A) (A) (A) (A) (A) (A) (A) (A) (A) (A)
                 (A) (A) (A) (A) (A) (A) (A) (A) (A) (A)
 The electronic state is 6-A.
 Alpha  occ. eigenvalues -- -235.83681 -77.46926 -77.43626 -27.64405 -23.64154
 Alpha  occ. eigenvalues --  -23.64059 -23.64000 -19.40962 -19.40884 -19.36778
 Alpha  occ. eigenvalues --  -19.36689 -19.36486 -19.33944 -19.33442 -19.31706
 Alpha  occ. eigenvalues --  -19.29763 -19.28199 -14.55176 -14.54809 -10.53754
 Alpha  occ. eigenvalues --  -10.53619 -10.43124 -10.42784 -10.41233 -10.39498
 Alpha  occ. eigenvalues --   -6.87347  -6.84059  -4.99431  -4.99249  -4.99185
 Alpha  occ. eigenvalues --   -4.96140  -4.95965  -4.95894  -3.45229  -2.29443
 Alpha  occ. eigenvalues --   -2.29316  -2.29195  -1.28958  -1.28862  -1.21841
 Alpha  occ. eigenvalues --   -1.20402  -1.20246  -1.18700  -1.16228  -1.12780
 Alpha  occ. eigenvalues --   -1.12174  -1.08676  -1.08262  -1.07757  -0.91389
 Alpha  occ. eigenvalues --   -0.90724  -0.84144  -0.82522  -0.77357  -0.76935
 Alpha  occ. eigenvalues --   -0.75173  -0.72134  -0.69116  -0.68566  -0.67956
 Alpha  occ. eigenvalues --   -0.67525  -0.66950  -0.66323  -0.65700  -0.63933
 Alpha  occ. eigenvalues --   -0.63433  -0.62503  -0.61579  -0.60658  -0.59631
 Alpha  occ. eigenvalues --   -0.59413  -0.58387  -0.57716  -0.56488  -0.56036
 Alpha  occ. eigenvalues --   -0.55841  -0.54550  -0.54466  -0.54084  -0.53640
 Alpha  occ. eigenvalues --   -0.53167  -0.51311  -0.50885  -0.50495  -0.50016
 Alpha  occ. eigenvalues --   -0.49592  -0.49236  -0.48824  -0.48459  -0.47621
 Alpha  occ. eigenvalues --   -0.47498  -0.46594  -0.46226  -0.45053  -0.44319
 Alpha  occ. eigenvalues --   -0.44010  -0.42666  -0.42315  -0.40935  -0.40846
 Alpha  occ. eigenvalues --   -0.38796  -0.37167
 Alpha virt. eigenvalues --   -0.14981  -0.14712  -0.12273  -0.09170  -0.08848
 Alpha virt. eigenvalues --   -0.08511  -0.07995  -0.06492  -0.06059  -0.05681
 Alpha virt. eigenvalues --   -0.05490  -0.04467  -0.03553  -0.03194  -0.02525
 Alpha virt. eigenvalues --   -0.02293  -0.01827  -0.01102  -0.00828  -0.00282
 Alpha virt. eigenvalues --    0.00116   0.00724   0.02070   0.02323   0.02875
 Alpha virt. eigenvalues --    0.03152   0.03765   0.04258   0.04707   0.05324
 Alpha virt. eigenvalues --    0.06184   0.06327   0.07071   0.07950   0.08525
 Alpha virt. eigenvalues --    0.09027   0.10108   0.10522   0.11170   0.11976
 Alpha virt. eigenvalues --    0.12521   0.12736   0.13178   0.14035   0.14812
 Alpha virt. eigenvalues --    0.15957   0.16329   0.16616   0.17423   0.17645
 Alpha virt. eigenvalues --    0.18373   0.18511   0.18822   0.19059   0.20112
 Alpha virt. eigenvalues --    0.20543   0.20916   0.21098   0.21847   0.22413
 Alpha virt. eigenvalues --    0.22842   0.23348   0.23722   0.24372   0.24598
 Alpha virt. eigenvalues --    0.24738   0.25661   0.25681   0.26195   0.26437
 Alpha virt. eigenvalues --    0.26951   0.27539   0.27699   0.28130   0.28525
 Alpha virt. eigenvalues --    0.28914   0.29465   0.29695   0.30073   0.30644
 Alpha virt. eigenvalues --    0.31505   0.32118   0.32584   0.33328   0.33840
 Alpha virt. eigenvalues --    0.35186   0.35296   0.35620   0.35994   0.36546
 Alpha virt. eigenvalues --    0.37335   0.37565   0.37997   0.38138   0.39287
 Alpha virt. eigenvalues --    0.39554   0.39954   0.40312   0.40800   0.40984
 Alpha virt. eigenvalues --    0.41617   0.42083   0.43005   0.43528   0.44483
 Alpha virt. eigenvalues --    0.45245   0.46539   0.47418   0.47863   0.48322
 Alpha virt. eigenvalues --    0.49599   0.50204   0.50999   0.52264   0.53042
 Alpha virt. eigenvalues --    0.53340   0.53729   0.54874   0.55114   0.55594
 Alpha virt. eigenvalues --    0.55758   0.57298   0.57427   0.58293   0.58734
 Alpha virt. eigenvalues --    0.59271   0.59605   0.61133   0.61712   0.61986
 Alpha virt. eigenvalues --    0.62551   0.64327   0.64396   0.64793   0.65000
 Alpha virt. eigenvalues --    0.65800   0.66904   0.67985   0.68527   0.69189
 Alpha virt. eigenvalues --    0.69612   0.70311   0.70814   0.71228   0.72103
 Alpha virt. eigenvalues --    0.73301   0.74346   0.75046   0.75225   0.76399
 Alpha virt. eigenvalues --    0.76760   0.77285   0.78255   0.78561   0.81122
 Alpha virt. eigenvalues --    0.81805   0.82754   0.83494   0.83972   0.85217
 Alpha virt. eigenvalues --    0.85747   0.87233   0.87359   0.87589   0.88538
 Alpha virt. eigenvalues --    0.89895   0.90379   0.90868   0.92346   0.94499
 Alpha virt. eigenvalues --    0.95415   0.96097   0.96519   0.96815   0.98137
 Alpha virt. eigenvalues --    0.99011   1.00012   1.01026   1.03716   1.04983
 Alpha virt. eigenvalues --    1.06779   1.08451   1.08607   1.09391   1.10361
 Alpha virt. eigenvalues --    1.12040   1.12444   1.14094   1.15669   1.16794
 Alpha virt. eigenvalues --    1.17764   1.17864   1.18225   1.18834   1.19674
 Alpha virt. eigenvalues --    1.20564   1.21982   1.22608   1.23513   1.23962
 Alpha virt. eigenvalues --    1.24317   1.25521   1.25966   1.26189   1.27284
 Alpha virt. eigenvalues --    1.27543   1.29164   1.30178   1.30582   1.31701
 Alpha virt. eigenvalues --    1.31940   1.33155   1.34004   1.35344   1.36119
 Alpha virt. eigenvalues --    1.36876   1.38552   1.39301   1.39591   1.40527
 Alpha virt. eigenvalues --    1.40988   1.41935   1.43130   1.43597   1.44881
 Alpha virt. eigenvalues --    1.46042   1.46337   1.46963   1.47780   1.48138
 Alpha virt. eigenvalues --    1.49650   1.50317   1.51279   1.51960   1.52048
 Alpha virt. eigenvalues --    1.52887   1.53351   1.54230   1.55323   1.55753
 Alpha virt. eigenvalues --    1.57324   1.58641   1.59603   1.60177   1.63024
 Alpha virt. eigenvalues --    1.63246   1.63901   1.64390   1.64987   1.67291
 Alpha virt. eigenvalues --    1.67477   1.68247   1.69438   1.69582   1.70275
 Alpha virt. eigenvalues --    1.71069   1.72610   1.73275   1.73968   1.75204
 Alpha virt. eigenvalues --    1.76040   1.76732   1.77311   1.77877   1.78374
 Alpha virt. eigenvalues --    1.78676   1.80075   1.80277   1.80825   1.82320
 Alpha virt. eigenvalues --    1.83361   1.83624   1.84308   1.84885   1.86348
 Alpha virt. eigenvalues --    1.87030   1.87126   1.87498   1.87983   1.88986
 Alpha virt. eigenvalues --    1.89664   1.90901   1.91916   1.92782   1.93469
 Alpha virt. eigenvalues --    1.94075   1.94437   1.96058   1.96428   1.97389
 Alpha virt. eigenvalues --    1.97899   1.98500   2.00213   2.01894   2.02528
 Alpha virt. eigenvalues --    2.03188   2.03846   2.04035   2.05232   2.05557
 Alpha virt. eigenvalues --    2.06671   2.07377   2.07840   2.08374   2.10530
 Alpha virt. eigenvalues --    2.10910   2.11279   2.11621   2.11966   2.12654
 Alpha virt. eigenvalues --    2.13336   2.13377   2.14393   2.15046   2.17216
 Alpha virt. eigenvalues --    2.18931   2.19664   2.20191   2.21281   2.22056
 Alpha virt. eigenvalues --    2.24156   2.24562   2.25523   2.26486   2.27344
 Alpha virt. eigenvalues --    2.27796   2.28673   2.29294   2.29876   2.30249
 Alpha virt. eigenvalues --    2.31043   2.32383   2.33876   2.36015   2.36884
 Alpha virt. eigenvalues --    2.37274   2.37691   2.38032   2.39174   2.39713
 Alpha virt. eigenvalues --    2.40570   2.42666   2.44474   2.45337   2.45900
 Alpha virt. eigenvalues --    2.47556   2.49207   2.50504   2.51723   2.52599
 Alpha virt. eigenvalues --    2.53820   2.53960   2.54839   2.56143   2.56415
 Alpha virt. eigenvalues --    2.59037   2.59855   2.60496   2.61629   2.63627
 Alpha virt. eigenvalues --    2.63898   2.64714   2.64930   2.66420   2.67034
 Alpha virt. eigenvalues --    2.69373   2.71833   2.73113   2.73490   2.74378
 Alpha virt. eigenvalues --    2.75702   2.77407   2.78349   2.78486   2.79782
 Alpha virt. eigenvalues --    2.80450   2.80848   2.83110   2.84154   2.84823
 Alpha virt. eigenvalues --    2.85943   2.86471   2.87251   2.88376   2.89141
 Alpha virt. eigenvalues --    2.90218   2.90989   2.92750   2.92880   2.93410
 Alpha virt. eigenvalues --    2.93693   2.95372   2.97062   2.97447   2.98120
 Alpha virt. eigenvalues --    2.98756   2.99325   3.00658   3.01487   3.02045
 Alpha virt. eigenvalues --    3.03651   3.04180   3.04804   3.05018   3.06206
 Alpha virt. eigenvalues --    3.06743   3.07447   3.08227   3.09459   3.10360
 Alpha virt. eigenvalues --    3.10896   3.13464   3.14272   3.14570   3.17123
 Alpha virt. eigenvalues --    3.17697   3.18817   3.19370   3.19708   3.20915
 Alpha virt. eigenvalues --    3.22245   3.22904   3.23289   3.23596   3.24018
 Alpha virt. eigenvalues --    3.25425   3.26022   3.26624   3.27180   3.27876
 Alpha virt. eigenvalues --    3.28914   3.29855   3.30693   3.30795   3.31945
 Alpha virt. eigenvalues --    3.32842   3.34890   3.35532   3.36103   3.37331
 Alpha virt. eigenvalues --    3.39096   3.39690   3.41347   3.41849   3.42298
 Alpha virt. eigenvalues --    3.43017   3.45027   3.45561   3.46439   3.47849
 Alpha virt. eigenvalues --    3.49074   3.51160   3.52088   3.52675   3.56594
 Alpha virt. eigenvalues --    3.59233   3.60235   3.60993   3.62475   3.63340
 Alpha virt. eigenvalues --    3.65790   3.66063   3.67240   3.68797   3.69295
 Alpha virt. eigenvalues --    3.70134   3.74469   3.76047   3.78485   3.81734
 Alpha virt. eigenvalues --    3.82644   3.84328   3.85718   3.85938   3.86743
 Alpha virt. eigenvalues --    3.87721   3.89733   3.91348   3.94562   3.96674
 Alpha virt. eigenvalues --    3.97174   3.97693   4.00443   4.02583   4.03933
 Alpha virt. eigenvalues --    4.07696   4.09212   4.19344   4.22185   4.29969
 Alpha virt. eigenvalues --    4.31911   4.32473   4.34606   4.39613   4.42747
 Alpha virt. eigenvalues --    4.56013   4.57634   4.61424   4.62596   4.71021
 Alpha virt. eigenvalues --    4.71639   4.88996   4.89149   4.93207   4.93432
 Alpha virt. eigenvalues --    4.94859   4.96732   4.98402   4.99016   4.99993
 Alpha virt. eigenvalues --    5.00586   5.01163   5.01473   5.02292   5.02706
 Alpha virt. eigenvalues --    5.02939   5.03398   5.03609   5.04407   5.05354
 Alpha virt. eigenvalues --    5.05850   5.06054   5.06278   5.06632   5.07207
 Alpha virt. eigenvalues --    5.07587   5.08149   5.08749   5.09496   5.10044
 Alpha virt. eigenvalues --    5.10559   5.12124   5.12983   5.13317   5.14647
 Alpha virt. eigenvalues --    5.15365   5.17648   5.18294   5.18573   5.21955
 Alpha virt. eigenvalues --    5.22570   5.22842   5.23585   5.23761   5.24164
 Alpha virt. eigenvalues --    5.24387   5.25131   5.25843   5.27806   5.28615
 Alpha virt. eigenvalues --    5.29979   5.31597   5.32818   5.33116   5.33945
 Alpha virt. eigenvalues --    5.35519   5.35935   5.37761   5.38305   5.39765
 Alpha virt. eigenvalues --    5.40796   5.41281   5.44399   5.45118   5.46450
 Alpha virt. eigenvalues --    5.46949   5.48173   5.51869   5.54037   5.57816
 Alpha virt. eigenvalues --    5.59076   5.61636   5.64779   5.65644   5.76080
 Alpha virt. eigenvalues --    5.76959   5.77080   5.77183   5.97951   5.98348
 Alpha virt. eigenvalues --    6.04965   6.05104   6.05235   6.06915   6.18678
 Alpha virt. eigenvalues --    6.18749   6.22395   6.24703   6.25683   6.31122
 Alpha virt. eigenvalues --    6.32612   6.33386   6.35172   6.36145   6.37286
 Alpha virt. eigenvalues --    6.41328   6.42511   6.44870   6.47168   6.49188
 Alpha virt. eigenvalues --    6.50353   6.52143   6.53738   6.54466   6.55349
 Alpha virt. eigenvalues --    6.55960   6.56542   6.58247   6.60103   6.60597
 Alpha virt. eigenvalues --    6.61212   6.63939   6.64836   6.65110   6.69327
 Alpha virt. eigenvalues --    6.69794   6.71193   6.71418   6.73083   6.73921
 Alpha virt. eigenvalues --    6.75698   6.76374   6.78562   6.79221   6.79835
 Alpha virt. eigenvalues --    6.82759   6.87231   6.87658   6.89755   6.91916
 Alpha virt. eigenvalues --    6.93988   6.99622   6.99843   7.03882   7.04397
 Alpha virt. eigenvalues --    7.06025   7.15902   7.16061   7.19499   7.72505
 Alpha virt. eigenvalues --    7.75536   7.93986   8.00100   8.11273   8.13868
 Alpha virt. eigenvalues --   16.67056  16.76093  22.20521  22.23028  22.31070
 Alpha virt. eigenvalues --   22.32604  23.08335  23.09263  32.30259  32.34279
 Alpha virt. eigenvalues --   43.43185  43.52332  43.59015  43.59870  43.66045
 Alpha virt. eigenvalues --   43.69407  43.70399  43.73438  43.77096  43.82864
  Beta  occ. eigenvalues -- -235.83551 -77.46922 -77.43622 -27.58149 -23.58057
  Beta  occ. eigenvalues --  -23.57947 -23.57874 -19.40954 -19.40877 -19.36704
  Beta  occ. eigenvalues --  -19.36616 -19.36482 -19.33940 -19.33439 -19.31590
  Beta  occ. eigenvalues --  -19.29629 -19.28195 -14.55097 -14.54725 -10.53742
  Beta  occ. eigenvalues --  -10.53607 -10.43125 -10.42785 -10.41235 -10.39500
  Beta  occ. eigenvalues --   -6.87343  -6.84055  -4.99425  -4.99244  -4.99175
  Beta  occ. eigenvalues --   -4.96135  -4.95957  -4.95891  -3.21869  -2.04659
  Beta  occ. eigenvalues --   -2.04473  -2.04291  -1.28894  -1.28799  -1.21801
  Beta  occ. eigenvalues --   -1.20295  -1.20146  -1.18652  -1.16197  -1.12579
  Beta  occ. eigenvalues --   -1.11996  -1.08562  -1.08151  -1.07632  -0.91361
  Beta  occ. eigenvalues --   -0.90691  -0.84099  -0.82479  -0.77309  -0.76876
  Beta  occ. eigenvalues --   -0.75109  -0.72036  -0.68848  -0.68499  -0.67740
  Beta  occ. eigenvalues --   -0.67374  -0.66814  -0.66132  -0.65550  -0.63770
  Beta  occ. eigenvalues --   -0.63315  -0.62338  -0.61404  -0.60281  -0.59425
  Beta  occ. eigenvalues --   -0.59253  -0.58176  -0.57148  -0.56341  -0.55900
  Beta  occ. eigenvalues --   -0.55665  -0.54377  -0.54250  -0.53989  -0.53516
  Beta  occ. eigenvalues --   -0.52812  -0.50877  -0.50301  -0.50111  -0.49768
  Beta  occ. eigenvalues --   -0.47718  -0.47581  -0.47411  -0.47015  -0.46279
  Beta  occ. eigenvalues --   -0.46162  -0.45228  -0.44260  -0.43398  -0.42826
  Beta  occ. eigenvalues --   -0.41716  -0.41129
  Beta virt. eigenvalues --   -0.15507  -0.15358  -0.14387  -0.12861  -0.11492
  Beta virt. eigenvalues --   -0.10831  -0.09494  -0.09159  -0.08917  -0.08518
  Beta virt. eigenvalues --   -0.08037  -0.07815  -0.06431  -0.05840  -0.05450
  Beta virt. eigenvalues --   -0.05244  -0.04290  -0.03346  -0.03018  -0.02159
  Beta virt. eigenvalues --   -0.01843  -0.01762  -0.00748  -0.00460  -0.00128
  Beta virt. eigenvalues --    0.00246   0.01446   0.02173   0.02481   0.02930
  Beta virt. eigenvalues --    0.03263   0.03879   0.04313   0.04968   0.05492
  Beta virt. eigenvalues --    0.06304   0.06723   0.07240   0.08185   0.08608
  Beta virt. eigenvalues --    0.09067   0.10080   0.10632   0.11289   0.12318
  Beta virt. eigenvalues --    0.12743   0.13011   0.13576   0.14094   0.14995
  Beta virt. eigenvalues --    0.16115   0.16398   0.16727   0.17663   0.17694
  Beta virt. eigenvalues --    0.18417   0.18950   0.19099   0.19219   0.20181
  Beta virt. eigenvalues --    0.20806   0.21042   0.21857   0.22036   0.22537
  Beta virt. eigenvalues --    0.22945   0.23345   0.24031   0.24404   0.24733
  Beta virt. eigenvalues --    0.24757   0.25707   0.25754   0.26176   0.26476
  Beta virt. eigenvalues --    0.26945   0.27557   0.27851   0.28193   0.28574
  Beta virt. eigenvalues --    0.28975   0.29395   0.29860   0.29957   0.30813
  Beta virt. eigenvalues --    0.31679   0.32137   0.32766   0.33274   0.33807
  Beta virt. eigenvalues --    0.35293   0.35374   0.35685   0.36171   0.36534
  Beta virt. eigenvalues --    0.37426   0.37608   0.38089   0.38260   0.39256
  Beta virt. eigenvalues --    0.39567   0.40014   0.40437   0.40812   0.41102
  Beta virt. eigenvalues --    0.41663   0.42157   0.43035   0.43551   0.44567
  Beta virt. eigenvalues --    0.45313   0.46725   0.47314   0.47909   0.48473
  Beta virt. eigenvalues --    0.49523   0.50198   0.50978   0.52151   0.52300
  Beta virt. eigenvalues --    0.53220   0.53779   0.55002   0.55130   0.55331
  Beta virt. eigenvalues --    0.55879   0.57113   0.57561   0.58641   0.58797
  Beta virt. eigenvalues --    0.59338   0.59695   0.61381   0.61817   0.61952
  Beta virt. eigenvalues --    0.62525   0.64282   0.64350   0.64633   0.64994
  Beta virt. eigenvalues --    0.65924   0.66810   0.67866   0.68733   0.69044
  Beta virt. eigenvalues --    0.69584   0.70287   0.70918   0.71414   0.72248
  Beta virt. eigenvalues --    0.73478   0.74379   0.75442   0.76085   0.76750
  Beta virt. eigenvalues --    0.76804   0.77742   0.78689   0.78847   0.81574
  Beta virt. eigenvalues --    0.82299   0.82979   0.83918   0.84099   0.85433
  Beta virt. eigenvalues --    0.85922   0.87219   0.87637   0.87790   0.88564
  Beta virt. eigenvalues --    0.90027   0.90184   0.90947   0.92339   0.94850
  Beta virt. eigenvalues --    0.95007   0.96294   0.96532   0.97002   0.98513
  Beta virt. eigenvalues --    0.99399   1.00096   1.00911   1.03653   1.05207
  Beta virt. eigenvalues --    1.06764   1.08393   1.08738   1.09430   1.10349
  Beta virt. eigenvalues --    1.12015   1.12408   1.14123   1.15704   1.16851
  Beta virt. eigenvalues --    1.17786   1.17996   1.18234   1.18832   1.19830
  Beta virt. eigenvalues --    1.20490   1.22009   1.22734   1.23501   1.24005
  Beta virt. eigenvalues --    1.24362   1.25535   1.25905   1.26239   1.27277
  Beta virt. eigenvalues --    1.27622   1.29202   1.30124   1.30596   1.31612
  Beta virt. eigenvalues --    1.31992   1.33179   1.33957   1.35326   1.36154
  Beta virt. eigenvalues --    1.36830   1.38566   1.39212   1.39508   1.40429
  Beta virt. eigenvalues --    1.40954   1.41932   1.43139   1.43558   1.44888
  Beta virt. eigenvalues --    1.46022   1.46158   1.46877   1.47696   1.47967
  Beta virt. eigenvalues --    1.49703   1.50262   1.51222   1.51817   1.52074
  Beta virt. eigenvalues --    1.52839   1.53371   1.54187   1.55343   1.55739
  Beta virt. eigenvalues --    1.57245   1.58617   1.59849   1.60072   1.62971
  Beta virt. eigenvalues --    1.63151   1.63731   1.64252   1.64894   1.67226
  Beta virt. eigenvalues --    1.67425   1.68170   1.69302   1.69494   1.70185
  Beta virt. eigenvalues --    1.71001   1.72589   1.73242   1.73914   1.75083
  Beta virt. eigenvalues --    1.75958   1.76819   1.77247   1.77862   1.78296
  Beta virt. eigenvalues --    1.78722   1.79992   1.80242   1.80863   1.82200
  Beta virt. eigenvalues --    1.83361   1.83466   1.84281   1.84961   1.86327
  Beta virt. eigenvalues --    1.86915   1.87124   1.87473   1.87939   1.88961
  Beta virt. eigenvalues --    1.89680   1.91008   1.91694   1.92708   1.93461
  Beta virt. eigenvalues --    1.94044   1.94408   1.96021   1.96400   1.97386
  Beta virt. eigenvalues --    1.97867   1.98513   2.00199   2.01874   2.02799
  Beta virt. eigenvalues --    2.03208   2.03786   2.04008   2.05020   2.05495
  Beta virt. eigenvalues --    2.06737   2.07428   2.07868   2.08392   2.10538
  Beta virt. eigenvalues --    2.10916   2.11240   2.11584   2.11886   2.12620
  Beta virt. eigenvalues --    2.13289   2.13369   2.14266   2.14974   2.17181
  Beta virt. eigenvalues --    2.18888   2.19698   2.20089   2.21265   2.22022
  Beta virt. eigenvalues --    2.24119   2.24592   2.25511   2.26502   2.27328
  Beta virt. eigenvalues --    2.27800   2.28634   2.29098   2.29858   2.30182
  Beta virt. eigenvalues --    2.31041   2.32320   2.33706   2.35933   2.36792
  Beta virt. eigenvalues --    2.37217   2.37620   2.37881   2.38962   2.39659
  Beta virt. eigenvalues --    2.40512   2.42604   2.44471   2.45286   2.45880
  Beta virt. eigenvalues --    2.47528   2.49208   2.50451   2.51760   2.52561
  Beta virt. eigenvalues --    2.53787   2.53929   2.54846   2.56103   2.56396
  Beta virt. eigenvalues --    2.59060   2.59869   2.60528   2.61710   2.63622
  Beta virt. eigenvalues --    2.63879   2.64723   2.64910   2.66478   2.67088
  Beta virt. eigenvalues --    2.69415   2.71848   2.73135   2.73523   2.74357
  Beta virt. eigenvalues --    2.75750   2.77432   2.78442   2.78519   2.79760
  Beta virt. eigenvalues --    2.80519   2.80957   2.83341   2.84344   2.85066
  Beta virt. eigenvalues --    2.86156   2.86595   2.87569   2.88602   2.89330
  Beta virt. eigenvalues --    2.90377   2.91053   2.92850   2.93028   2.93583
  Beta virt. eigenvalues --    2.93811   2.95423   2.97146   2.97587   2.98310
  Beta virt. eigenvalues --    2.98858   2.99390   3.00959   3.01883   3.02532
  Beta virt. eigenvalues --    3.04002   3.04481   3.05116   3.05260   3.06300
  Beta virt. eigenvalues --    3.07169   3.07660   3.08386   3.09568   3.11207
  Beta virt. eigenvalues --    3.12564   3.13884   3.14652   3.14899   3.17321
  Beta virt. eigenvalues --    3.18097   3.18951   3.19540   3.20628   3.21692
  Beta virt. eigenvalues --    3.22700   3.23190   3.23485   3.23905   3.24475
  Beta virt. eigenvalues --    3.26563   3.27009   3.27767   3.28152   3.30341
  Beta virt. eigenvalues --    3.31718   3.32539   3.33767   3.34163   3.35664
  Beta virt. eigenvalues --    3.37128   3.37915   3.39210   3.40617   3.40872
  Beta virt. eigenvalues --    3.41046   3.42196   3.43219   3.43454   3.45101
  Beta virt. eigenvalues --    3.45826   3.48603   3.50251   3.50509   3.51069
  Beta virt. eigenvalues --    3.51501   3.52679   3.52914   3.55284   3.58697
  Beta virt. eigenvalues --    3.60205   3.61230   3.62269   3.63331   3.63911
  Beta virt. eigenvalues --    3.65927   3.66159   3.67267   3.68967   3.69400
  Beta virt. eigenvalues --    3.70203   3.75227   3.76763   3.78738   3.81839
  Beta virt. eigenvalues --    3.82689   3.84515   3.85848   3.85953   3.86829
  Beta virt. eigenvalues --    3.87751   3.89816   3.91554   3.94830   3.97054
  Beta virt. eigenvalues --    3.97199   3.97840   4.00444   4.02552   4.03904
  Beta virt. eigenvalues --    4.07768   4.09283   4.19280   4.22091   4.29973
  Beta virt. eigenvalues --    4.31924   4.32421   4.34573   4.39772   4.43036
  Beta virt. eigenvalues --    4.55967   4.57586   4.61538   4.62646   4.71081
  Beta virt. eigenvalues --    4.71713   4.88964   4.89127   4.93278   4.93440
  Beta virt. eigenvalues --    4.94893   4.96763   4.98511   4.99045   5.00018
  Beta virt. eigenvalues --    5.00614   5.01190   5.01480   5.02291   5.02718
  Beta virt. eigenvalues --    5.02968   5.03426   5.03682   5.04474   5.05454
  Beta virt. eigenvalues --    5.05961   5.06122   5.06334   5.06662   5.07332
  Beta virt. eigenvalues --    5.07667   5.08208   5.08801   5.09611   5.10135
  Beta virt. eigenvalues --    5.10659   5.12207   5.12972   5.13384   5.14675
  Beta virt. eigenvalues --    5.15395   5.17680   5.18337   5.18655   5.21997
  Beta virt. eigenvalues --    5.22597   5.22906   5.23605   5.23779   5.24199
  Beta virt. eigenvalues --    5.24411   5.25176   5.25893   5.27840   5.28664
  Beta virt. eigenvalues --    5.30093   5.31634   5.32911   5.33153   5.33958
  Beta virt. eigenvalues --    5.35504   5.35930   5.37788   5.38316   5.39818
  Beta virt. eigenvalues --    5.40815   5.41280   5.44437   5.45167   5.46450
  Beta virt. eigenvalues --    5.46996   5.48171   5.51885   5.54064   5.57873
  Beta virt. eigenvalues --    5.59128   5.61645   5.64815   5.65698   5.76130
  Beta virt. eigenvalues --    5.76982   5.77093   5.77208   5.97987   5.98382
  Beta virt. eigenvalues --    6.04999   6.05135   6.05246   6.06916   6.18692
  Beta virt. eigenvalues --    6.18761   6.22419   6.24770   6.25745   6.31188
  Beta virt. eigenvalues --    6.32826   6.33447   6.35239   6.36262   6.37438
  Beta virt. eigenvalues --    6.41494   6.42673   6.44931   6.47260   6.49327
  Beta virt. eigenvalues --    6.50340   6.52140   6.53831   6.54515   6.55415
  Beta virt. eigenvalues --    6.55962   6.56626   6.58398   6.60235   6.60633
  Beta virt. eigenvalues --    6.61266   6.64035   6.64860   6.65129   6.69348
  Beta virt. eigenvalues --    6.69866   6.71228   6.71525   6.73332   6.74049
  Beta virt. eigenvalues --    6.75926   6.76519   6.78638   6.79316   6.79862
  Beta virt. eigenvalues --    6.82827   6.87389   6.87750   6.89778   6.91959
  Beta virt. eigenvalues --    6.94006   6.99612   6.99853   7.03889   7.04357
  Beta virt. eigenvalues --    7.05955   7.15902   7.16058   7.19505   7.72543
  Beta virt. eigenvalues --    7.75569   7.94006   8.00112   8.11289   8.13901
  Beta virt. eigenvalues --   16.67067  16.76100  22.20519  22.23026  22.31070
  Beta virt. eigenvalues --   22.32603  23.08327  23.09257  32.30317  32.34334
  Beta virt. eigenvalues --   43.43191  43.52339  43.59021  43.59961  43.66063
  Beta virt. eigenvalues --   43.69444  43.70465  43.73457  43.77140  43.82898
          Condensed to atoms (all electrons):
               1          2          3          4          5          6
     1  C    4.550297   0.250103  -0.034811   0.364321   0.404499   0.009692
     2  C    0.250103   5.051237   0.190521  -0.089053  -0.028123  -0.066626
     3  N   -0.034811   0.190521   6.957601   0.003365  -0.045069   0.154478
     4  O    0.364321  -0.089053   0.003365   7.892139  -0.067292  -0.000281
     5  O    0.404499  -0.028123  -0.045069  -0.067292   8.102764  -0.000521
     6  C    0.009692  -0.066626   0.154478  -0.000281  -0.000521   5.032116
     7  P    0.000031   0.009939  -0.043154   0.000010   0.000788   0.326431
     8  O    0.000022  -0.000554  -0.000858  -0.000000  -0.000003  -0.020712
     9  O    0.000976  -0.002149  -0.034769  -0.000000   0.000221  -0.021532
    10  O    0.000005  -0.000125   0.001901  -0.000000  -0.000000  -0.034668
    11  H    0.000006   0.000074  -0.000133   0.000000   0.000005   0.001810
    12  Mn  -0.027342  -0.007640   0.076315   0.000337   0.102874  -0.013713
    13  H   -0.013654   0.012487  -0.000516   0.282440   0.006106   0.000067
    14  H    0.003962  -0.026648   0.339714   0.000073   0.001040  -0.016876
    15  H   -0.040850   0.416193  -0.027241   0.004085   0.000771  -0.002313
    16  H   -0.023098   0.406536  -0.032278   0.003167  -0.000090  -0.002575
    17  H   -0.000493  -0.007159  -0.027206   0.000005  -0.000039   0.399722
    18  H   -0.000506  -0.005469  -0.032204  -0.000018   0.000266   0.416281
    19  C    0.000093   0.000044   0.000000  -0.000005   0.000063  -0.000080
    20  O   -0.000005  -0.000001  -0.000000  -0.000000  -0.000015   0.000000
    21  O    0.000116  -0.001102   0.000147  -0.000014  -0.017786  -0.000134
    22  C    0.000037  -0.000065   0.000137  -0.000001  -0.001206   0.000020
    23  N   -0.000010   0.000133   0.000046  -0.000000   0.000170   0.000090
    24  C   -0.000044  -0.000002   0.000089   0.000000  -0.000051  -0.000002
    25  P    0.000172  -0.000354  -0.000955  -0.000002   0.000133  -0.000169
    26  O    0.003113   0.000089  -0.047939  -0.000024  -0.010583   0.002773
    27  O    0.000006  -0.000050  -0.000033  -0.000000  -0.000006  -0.000429
    28  O   -0.000005   0.000004  -0.000013  -0.000000  -0.000000   0.000008
    29  H    0.000001   0.000000  -0.000000   0.000000   0.000013  -0.000000
    30  H   -0.000012   0.000003  -0.000003   0.000000   0.000039   0.000000
    31  H    0.000000  -0.000000   0.000001  -0.000000  -0.000006   0.000000
    32  H   -0.000033   0.000026   0.000097   0.000000  -0.000014   0.000295
    33  H   -0.000009   0.000001  -0.000025  -0.000000  -0.000030   0.000006
    34  H   -0.000002  -0.000000   0.000014  -0.000000   0.000000  -0.000005
    35  H   -0.000001   0.000027  -0.000191   0.000000   0.000000   0.003672
    36  H    0.000001  -0.000001   0.000001  -0.000000   0.000001  -0.000002
               7          8          9         10         11         12
     1  C    0.000031   0.000022   0.000976   0.000005   0.000006  -0.027342
     2  C    0.009939  -0.000554  -0.002149  -0.000125   0.000074  -0.007640
     3  N   -0.043154  -0.000858  -0.034769   0.001901  -0.000133   0.076315
     4  O    0.000010  -0.000000  -0.000000  -0.000000   0.000000   0.000337
     5  O    0.000788  -0.000003   0.000221  -0.000000   0.000005   0.102874
     6  C    0.326431  -0.020712  -0.021532  -0.034668   0.001810  -0.013713
     7  P   12.659335   0.400254   0.462852   0.405285  -0.007890   0.002040
     8  O    0.400254   7.997630  -0.032339  -0.029299   0.237665   0.002574
     9  O    0.462852  -0.032339   8.066596  -0.023930   0.002466   0.137507
    10  O    0.405285  -0.029299  -0.023930   7.872943  -0.000101   0.000710
    11  H   -0.007890   0.237665   0.002466  -0.000101   0.253120   0.000283
    12  Mn   0.002040   0.002574   0.137507   0.000710   0.000283  23.732190
    13  H   -0.000002   0.000000   0.000000   0.000000   0.000000   0.000097
    14  H   -0.002701   0.001778   0.001470   0.000044   0.000369  -0.005806
    15  H   -0.000256   0.000025  -0.000028   0.000001  -0.000003   0.001369
    16  H   -0.000325  -0.000003   0.000120  -0.000024  -0.000003  -0.003700
    17  H   -0.018315  -0.000643   0.001545   0.002375  -0.000213   0.002769
    18  H   -0.024665   0.001409  -0.001330   0.002662  -0.000044  -0.004976
    19  C    0.000186  -0.000001   0.002048  -0.000003   0.000011  -0.028020
    20  O   -0.000001  -0.000000  -0.000019  -0.000000   0.000000   0.000346
    21  O    0.000297  -0.000004  -0.009561  -0.000001   0.000003   0.107256
    22  C   -0.000260  -0.000025  -0.000281   0.000002   0.000048  -0.008437
    23  N   -0.000960   0.000126  -0.036251  -0.000006  -0.000118   0.079755
    24  C   -0.000289  -0.000546   0.002670   0.000005   0.002305  -0.015095
    25  P    0.005945   0.002003  -0.002881   0.000052  -0.010474   0.001668
    26  O   -0.000943  -0.001441  -0.007315   0.000006   0.003285   0.157895
    27  O    0.004296  -0.072110  -0.002687  -0.000055   0.108133   0.004978
    28  O    0.000065  -0.000075   0.000002  -0.000000   0.000015   0.000963
    29  H   -0.000000   0.000000   0.000003  -0.000000  -0.000000   0.000122
    30  H   -0.000001   0.000000  -0.000088  -0.000000  -0.000001  -0.003804
    31  H    0.000024   0.000000   0.000001  -0.000000  -0.000004   0.001305
    32  H   -0.000101  -0.000018   0.004740  -0.000033   0.000131  -0.004633
    33  H    0.000016   0.000009  -0.000060   0.000000  -0.000061  -0.005348
    34  H    0.000048   0.000021   0.000004  -0.000000  -0.000124   0.003341
    35  H   -0.007187   0.001886   0.000603   0.292402   0.000244  -0.000086
    36  H   -0.000004   0.000002   0.000005   0.000000   0.000133  -0.000140
              13         14         15         16         17         18
     1  C   -0.013654   0.003962  -0.040850  -0.023098  -0.000493  -0.000506
     2  C    0.012487  -0.026648   0.416193   0.406536  -0.007159  -0.005469
     3  N   -0.000516   0.339714  -0.027241  -0.032278  -0.027206  -0.032204
     4  O    0.282440   0.000073   0.004085   0.003167   0.000005  -0.000018
     5  O    0.006106   0.001040   0.000771  -0.000090  -0.000039   0.000266
     6  C    0.000067  -0.016876  -0.002313  -0.002575   0.399722   0.416281
     7  P   -0.000002  -0.002701  -0.000256  -0.000325  -0.018315  -0.024665
     8  O    0.000000   0.001778   0.000025  -0.000003  -0.000643   0.001409
     9  O    0.000000   0.001470  -0.000028   0.000120   0.001545  -0.001330
    10  O    0.000000   0.000044   0.000001  -0.000024   0.002375   0.002662
    11  H    0.000000   0.000369  -0.000003  -0.000003  -0.000213  -0.000044
    12  Mn   0.000097  -0.005806   0.001369  -0.003700   0.002769  -0.004976
    13  H    0.339117   0.000006  -0.000643  -0.000471  -0.000001   0.000001
    14  H    0.000006   0.436348  -0.007815   0.004158  -0.008737   0.004629
    15  H   -0.000643  -0.007815   0.508441  -0.018246   0.003006   0.000169
    16  H   -0.000471   0.004158  -0.018246   0.505461  -0.000605   0.003231
    17  H   -0.000001  -0.008737   0.003006  -0.000605   0.519589  -0.023778
    18  H    0.000001   0.004629   0.000169   0.003231  -0.023778   0.505435
    19  C    0.000001  -0.000043   0.000000  -0.000009  -0.000001  -0.000004
    20  O    0.000000   0.000000  -0.000000   0.000000  -0.000000  -0.000000
    21  O    0.000014  -0.000023  -0.000005   0.000032  -0.000000  -0.000019
    22  C    0.000000   0.000033  -0.000000   0.000002   0.000000   0.000000
    23  N   -0.000000   0.000219   0.000001  -0.000002   0.000013  -0.000017
    24  C   -0.000000   0.000454   0.000001   0.000001  -0.000006   0.000005
    25  P    0.000000  -0.000398   0.000028  -0.000001   0.000100   0.000010
[...]
 085328,-0.00115757,-0.11136396,-0.06449318,-0.19774669,-0.00905655,0.0
 0218786,-0.00694872,-0.00100004,-0.00021350,0.00021209,0.00021007,-0.0
 0021685,0.00029574,-0.00008062,0.00017735,-0.00021933,-0.00019823,0.00
 022275,0.00003773,0.00002055,0.00022874,-0.00030213,-0.00010412,-0.000
 32382,0.00022865,-0.01272397,-0.00839416,-0.01584942,0.12350445,0.0650
 3964,0.21279640,0.00024247,-0.00028145,-0.00012027,-0.00016279,-0.0002
 4563,-0.00003145,0.00010157,0.00025085,0.00023395,-0.00005246,0.000198
 57,0.00010571,-0.00023319,0.00022882,0.00011510,0.00063871,-0.00050671
 ,0.00010397,-0.00445865,0.00362257,-0.00064932,0.00007420,-0.00118836,
 0.00083759,0.00339964,-0.00056027,0.00102374,0.00076238,-0.00071182,-0
 .00057625,0.00078317,0.00052377,-0.00095771,0.00001485,-0.00552862,-0.
 00567468,0.00002943,-0.00003089,-0.00001860,0.00007930,0.00001676,-0.0
 0008251,0.00003400,0.00006148,0.00003457,-0.00000504,-0.00000315,-0.00
 001075,0.00013178,0.00018423,0.00021729,-0.00007729,-0.00002696,0.0000
 1309,0.00164672,0.00014130,0.00003813,-0.00041305,-0.00022582,-0.00007
 835,-0.00163454,0.00005289,0.00072844,-0.01147494,0.01846599,0.0140287
 5,-0.05230577,0.05968817,0.06060316,-0.00608819,0.00632517,0.01437740,
 0.00367532,-0.00119728,-0.00244484,-0.00165403,0.00049553,0.00045960,-
 0.00157749,0.00018053,0.00142615,-0.00064496,0.00027313,0.00018998,0.0
 0004842,-0.00003045,-0.00002293,-0.00168871,0.00334807,-0.00164220,0.0
 0131195,-0.00126413,0.00133757,0.06965351,-0.00023656,-0.00005889,-0.0
 0011914,0.00000328,-0.00003479,-0.00001205,0.00013947,-0.00004534,0.00
 002851,0.00007528,0.00009659,0.00008108,0.00018697,0.00009085,0.000156
 04,0.00009602,-0.00015427,0.00013672,0.00002939,0.00187512,-0.00038591
 ,-0.00064116,-0.00081758,0.00036236,0.00173676,-0.00160975,-0.00037326
 ,0.00013569,-0.00042256,-0.00014147,0.00105909,-0.00001466,-0.00008303
 ,-0.00292290,-0.00199204,-0.00341999,-0.00000156,-0.00002574,-0.000019
 19,-0.00000311,0.00004663,-0.00001336,0.00000784,0.00000658,0.00000627
 ,-0.00000526,-0.00000433,-0.00000315,0.00006594,0.00003377,0.00003485,
 -0.00003231,-0.00002786,-0.00001815,0.00321668,-0.00142139,-0.00049108
 ,-0.00055823,-0.00016316,0.00020733,-0.00115528,0.00044366,0.00023824,
 0.00503755,-0.01637304,-0.01718734,0.08763233,-0.19845325,-0.16224558,
 -0.00844758,0.01232693,0.01708729,-0.00132050,0.00393375,0.00259008,0.
 00001234,-0.00104458,0.00028444,-0.00037464,-0.00117736,-0.00208007,0.
 00038336,-0.00054790,-0.00033332,0.00002909,-0.00005238,0.00020193,0.0
 0065625,-0.00188961,0.00218563,-0.00024993,0.00180896,0.00053799,-0.08
 266541,0.20673838,-0.00024221,-0.00006216,-0.00009438,0.00001509,-0.00
 002564,-0.00002834,0.00014270,-0.00001289,-0.00003477,0.00007242,0.000
 08506,0.00007219,0.00020874,0.00011621,0.00010402,-0.00012217,0.000125
 86,0.00003149,0.00005732,-0.00047272,0.00067638,0.00054552,0.00025367,
 -0.00053620,0.00079820,-0.00015178,-0.00161473,0.00005326,-0.00009971,
 -0.00035083,-0.00106237,0.00016586,0.00046974,-0.00243527,-0.00221368,
 -0.00108649,-0.00000448,-0.00002614,-0.00001289,-0.00009219,-0.0000126
 4,-0.00000988,0.00000094,-0.00000121,0.00000557,0.00000082,0.00000376,
 0.00000071,-0.00001302,-0.00004570,-0.00003219,0.00001505,0.00001076,0
 .00000540,-0.00100159,-0.00044179,0.00086167,0.00010747,0.00047520,-0.
 00070932,0.00041645,0.00023967,-0.00015502,-0.00946447,0.01293371,0.01
 165300,0.09092007,-0.15922826,-0.24193572,0.00583571,-0.01682950,-0.02
 118175,0.00130138,-0.00096964,-0.00442285,-0.00023556,0.00033166,0.000
 38477,0.00034292,-0.00056060,0.00120891,-0.00034061,0.00016584,0.00054
 697,-0.00001925,0.00000954,0.00000234,-0.00184355,0.00304515,-0.000460
 85,-0.00068281,0.00059540,0.00089270,-0.08420165,0.15873059,0.25667825
 ,-0.00023577,-0.00003638,-0.00005683,0.00003660,0.00000928,-0.00001595
 ,0.00012669,-0.00002670,-0.00008075,0.00006074,0.00005185,0.00003636,0
 .00020056,0.00003246,-0.00004063,-0.00006499,0.00002620,0.00008062,0.0
 0023631,0.00048319,-0.00009196,-0.00068517,-0.00039012,0.00041180,-0.0
 0018693,-0.00022895,-0.00013377,-0.00006657,-0.00007742,0.00006960,0.0
 0107117,0.00032166,-0.00073266,-0.00017840,0.00017437,0.00112947,-0.00
 001442,-0.00003184,0.00000298,-0.00013566,0.00001630,0.00002107,-0.000
 00591,-0.00000864,-0.00000086,0.00000223,0.00000390,0.00000072,0.00001
 437,-0.00001674,-0.00001893,0.00000043,-0.00001335,-0.00001978,0.00040
 517,0.00014578,-0.00016164,-0.00008665,-0.00000200,0.00001149,-0.00025
 790,-0.00009563,-0.00012699,0.00062657,0.00006836,-0.00131816,-0.00625
 157,0.00766478,0.00837016,-0.08514639,0.06576145,0.07342169,-0.0071500
 9,0.01286265,0.01497426,0.00195557,-0.00154532,-0.00187251,-0.00411870
 ,0.00309273,-0.00073205,0.00059313,-0.00225862,-0.00053819,-0.00000608
 ,0.00001184,0.00003207,0.00039141,-0.00003057,-0.00013292,-0.00003209,
 0.00001737,0.00000139,-0.00034786,-0.00139155,0.00090343,0.08929873,0.
 00001222,-0.00001731,-0.00002360,-0.00001599,-0.00001065,0.00000611,-0
 .00004419,0.00001982,0.00002663,-0.00000104,0.00001696,0.00001346,0.00
 000872,0.00000620,0.00000546,0.00000397,0.00004670,-0.00007104,-0.0000
 4839,-0.00079910,0.00032707,0.00085245,0.00052251,-0.00063210,-0.00024
 180,0.00028546,-0.00005784,0.00005312,0.00011714,-0.00011851,-0.001330
 64,-0.00027996,0.00095378,0.00038032,0.00008329,-0.00011851,-0.0000004
 5,-0.00000099,-0.00000551,0.00004334,-0.00002261,-0.00000711,0.0000029
 7,0.00000126,0.00000108,-0.00000124,-0.00000292,-0.00000086,-0.0000210
 2,-0.00000504,-0.00000335,0.00000746,0.00002112,0.00001792,-0.00050202
 ,0.00033197,0.00019005,0.00005776,0.00013756,-0.00009848,-0.00000518,-
 0.00010743,-0.00010202,-0.00112619,0.00216265,0.00132784,-0.00940147,0
 .01082036,0.01642395,0.06939706,-0.16103002,-0.12059432,0.00164458,-0.
 00888993,-0.01156606,-0.00114392,0.00122948,0.00103998,0.00422937,-0.0
 0139479,0.00087154,-0.00096397,0.00089929,0.00132182,-0.00000820,-0.00
 000025,-0.00003127,0.00025568,0.00016769,-0.00047073,0.00021395,-0.000
 18995,-0.00012038,-0.00124035,-0.00161553,0.00390841,-0.07024021,0.168
 51096,0.00000809,0.00001377,0.00002070,0.00000074,-0.00000412,0.000000
 49,0.00003712,-0.00001373,-0.00000252,-0.00000194,-0.00000922,-0.00001
 578,-0.00001179,0.00000224,-0.00000764,0.00002838,-0.00006203,0.000055
 62,-0.00016427,0.00071690,-0.00033138,-0.00065141,-0.00043882,0.000541
 49,0.00045126,-0.00023364,0.00009449,-0.00000084,-0.00010956,0.0000802
 4,0.00106880,0.00029102,-0.00081733,-0.00027045,-0.00024651,-0.0004528
 2,-0.00000138,-0.00000235,0.00000959,0.00000194,0.00001815,0.00000604,
 -0.00000025,0.00000241,0.00000080,0.00000026,-0.00000007,-0.00000037,0
 .00002163,0.00001368,0.00001236,-0.00001208,-0.00001579,-0.00001157,0.
 00064853,0.00041651,0.00017125,-0.00009016,-0.00017099,0.00002060,-0.0
 0043113,0.00004673,-0.00015946,0.00076649,-0.00290245,0.00121459,0.014
 44132,-0.01318892,-0.02329505,0.06384702,-0.10831868,-0.15344984,-0.00
 160891,0.00554786,0.00935409,0.00038827,-0.00066120,-0.00069938,-0.004
 15123,0.00303259,0.00023851,0.00071755,-0.00078605,-0.00068116,0.00002
 471,-0.00002390,-0.00002637,-0.00064869,0.00080116,-0.00011147,-0.0001
 9227,0.00013874,0.00002225,0.00118996,0.00381359,-0.00288238,-0.079116
 21,0.11839167,0.17581828,0.00026079,0.00012287,0.00012943,-0.00000058,
 0.00005887,0.00006245,-0.00027889,0.00001029,0.00008311,-0.00007679,-0
 .00012289,-0.00010757,-0.00021840,-0.00013675,-0.00010261,0.00003255,-
 0.00002174,-0.00011692,0.00010815,-0.00092674,0.00007848,0.00068328,0.
 00052645,-0.00043742,-0.00031156,0.00051614,0.00022955,-0.00001986,0.0
 0019386,0.00003336,-0.00104978,-0.00019431,0.00061594,0.00082944,0.000
 41419,-0.00038137,-0.00000377,0.00003465,0.00002347,0.00026551,-0.0000
 3123,-0.00002864,-0.00000127,-0.00000643,-0.00001009,-0.00000334,-0.00
 001283,-0.00000035,-0.00003321,0.00001341,0.00001124,0.00000293,0.0000
 2024,0.00002688,-0.00041271,-0.00002562,-0.00021445,0.00010698,-0.0002
 1395,0.00016948,0.00020638,-0.00029373,0.00025368,0.00033788,0.0008243
 8,0.00035010,-0.00710852,-0.00801735,0.00376483,-0.17538505,-0.1213523
 9,-0.05622570,-0.01079061,-0.01611546,-0.00515625,-0.00521840,0.000159
 81,-0.00130746,0.00291762,0.00135438,0.00075033,0.00118879,0.00196858,
 0.00002054,0.00000258,0.00005248,-0.00001881,0.00003316,-0.00011593,0.
 00022702,0.00017102,-0.00065458,0.00022893,0.00007456,-0.00056535,-0.0
 0008927,0.00968272,0.00922697,0.00371501,0.18428895,0.00009758,-0.0000
 1918,0.00006085,0.,-0.00000684,-0.00002869,0.00004985,0.00004844,-0.00
 011571,-0.00003690,-0.00002995,-0.00003009,-0.00009081,0.00000558,-0.0
 0010860,-0.00004618,0.00006932,0.00000482,0.00034372,-0.00021274,0.000
 17622,-0.00012361,0.00002857,-0.00003456,-0.00047381,0.00023586,0.0000
 0893,-0.00008411,0.00004810,0.00003121,0.00007505,0.00006326,-0.000032
 51,0.00127806,-0.00021369,0.00137330,0.00000342,0.00000445,0.00001229,
 -0.00021436,-0.00001466,0.00006157,-0.00000993,-0.00000098,0.00000077,
 0.00000672,0.00001464,0.00000236,-0.00001033,-0.00001635,-0.00001644,0
 .00001499,-0.00000436,-0.00001405,-0.00035457,-0.00032898,-0.00003334,
 0.00006817,-0.00030916,0.00021311,0.00040857,-0.00031344,0.00025202,-0
 .00154780,0.00109492,-0.00125911,-0.01439708,-0.01193347,0.00337180,-0
 .11366962,-0.15328216,-0.04982849,0.00465376,0.00898891,0.00191862,0.0
 0553611,0.00168859,0.00106665,-0.00105950,-0.00074552,-0.00046894,-0.0
 0070690,-0.00075766,-0.00060185,0.00001295,0.00002892,0.00000813,0.000
 07954,-0.00031130,-0.00009174,0.00005898,-0.00017963,0.00019935,0.0014
 3445,0.00052905,-0.00011457,-0.01436763,-0.01102435,-0.00595304,0.1331
 5815,0.16692595,0.00000451,0.00008590,-0.00000912,-0.00000078,0.000035
 13,0.00004795,-0.00011374,-0.00008316,0.00012521,0.00001142,-0.0000283
 2,-0.00000754,0.00001535,-0.00005317,0.00012548,0.00003918,-0.00009374
 ,-0.00001673,-0.00018676,0.00027205,-0.00029407,-0.00001262,-0.0000803
 8,0.00013090,0.00046407,-0.00031353,0.00001151,0.00004448,-0.00004633,
 0.00002318,0.00006811,-0.00002912,-0.00005516,-0.00111177,0.00073469,-
 0.00203483,0.00000310,0.00001855,-0.00001018,0.00029443,0.00002279,-0.
 00004431,0.00000966,-0.00000080,-0.00000499,-0.00000892,-0.00001868,-0
 .00000265,0.00000923,0.00002036,0.00001686,-0.00002027,0.00000336,0.00
 001458,0.00022549,0.00029565,0.00006555,-0.00004969,0.00035594,-0.0002
 4917,-0.00026733,0.00069900,-0.00033947,0.00254591,-0.00175195,0.00214
 174,0.02465444,0.02528814,0.00176023,-0.05892568,-0.05493224,-0.071832
 70,-0.00224760,-0.01158028,-0.00138333,-0.00521873,-0.00014908,0.00018
 081,0.00055935,0.00101739,0.00026052,0.00126758,0.00130143,-0.00028629
 ,-0.00002190,-0.00003828,-0.00001935,-0.00030614,0.00000736,-0.0000490
 8,-0.00023839,-0.00036130,-0.00029917,-0.00064405,0.00009483,0.0019617
 6,-0.01459902,-0.01057836,-0.00500189,0.05398503,0.04977988,0.07531230
 ,0.00004768,0.00007787,0.00005574,0.00007694,0.00004358,-0.00008322,-0
 .00047837,-0.00026050,-0.00045003,-0.00001707,-0.00009007,-0.00005683,
 -0.00006615,-0.00003809,-0.00003304,0.00158758,-0.00114531,-0.00022318
 ,0.00040247,0.01788619,0.01014525,-0.00120664,-0.00173386,-0.00173798,
 -0.00484569,0.00092192,0.00266989,-0.02052873,-0.09157223,-0.02503363,
 -0.00065489,0.00020926,0.00059520,-0.00002165,0.00003959,-0.00013001,0
 .00000558,0.00001409,0.00000599,0.00007301,0.00001913,-0.00000785,-0.0
 0000699,-0.00004199,-0.00002913,0.00001269,-0.00000522,0.00001998,-0.0
 0000715,0.00028166,0.00009007,0.00010786,0.00007832,-0.00005563,0.0000
 4850,0.00010139,0.00000058,-0.00000346,-0.00005619,0.00000311,-0.00005
 343,-0.00002946,-0.00001689,-0.00003229,0.00001808,-0.00000100,-0.0001
 3246,-0.00003259,0.00001067,0.00002153,-0.00004897,-0.00004538,-0.0001
 3669,0.00054784,0.00049202,-0.00007320,-0.00026619,-0.00003204,0.00036
 594,-0.00031195,-0.00048619,0.00007090,-0.00003009,-0.00021138,-0.0000
 0146,0.00002856,0.00000344,-0.00000313,-0.00000418,-0.00000650,-0.0000
 1873,0.00000991,0.00000780,0.00001341,0.00011457,0.00009565,0.00001283
 ,-0.00002044,0.00000630,-0.00002819,0.00000353,0.00001452,0.02548082,0
 .00004090,-0.00028742,-0.00018464,-0.00022254,-0.00012014,0.00011711,0
 .00052200,0.00098190,0.00063313,0.00000648,0.00027527,0.00017487,0.000
 01549,0.00017358,0.00012501,-0.00054510,0.00121115,0.00152875,-0.00038
 664,-0.00627925,-0.00586426,-0.00244913,-0.00343598,0.00412287,-0.0017
 1106,0.00192326,0.00165774,-0.07158813,-0.45302616,-0.17269081,0.00135
 375,0.00033290,-0.00002539,0.00060474,-0.00046254,-0.00070045,0.000007
 19,-0.00004523,-0.00003175,0.00000118,-0.00001266,-0.00010452,0.000034
 92,0.00006917,0.00004640,-0.00001265,-0.00001465,-0.00002799,-0.000154
 11,-0.00007828,-0.00013895,-0.00002252,-0.00000258,0.00008746,0.000421
 30,-0.00009300,0.00014342,-0.00014230,0.00015074,-0.00012846,-0.000355
 08,0.00011136,-0.00006194,0.00001868,-0.00006700,0.00005295,-0.0002546
 1,-0.00004806,0.00005118,-0.00000432,0.00007058,-0.00006946,0.00044433
 ,0.00033775,-0.00036350,-0.00031976,-0.00028165,0.00022209,-0.00069324
 ,-0.00017849,0.00035176,-0.00012073,-0.00016335,0.00025430,0.00002319,
 -0.00005666,0.00001826,0.00000260,0.00000434,0.00000496,0.00000099,0.0
 0000764,-0.00001594,0.00018747,0.00005926,-0.00001055,-0.00000565,0.00
 000071,0.00000519,-0.00002950,-0.00001411,0.00000481,0.07532245,0.4588
 7530,-0.00027056,-0.00015890,-0.00016520,0.00008314,-0.00006818,-0.000
 39789,-0.00066822,-0.00104892,-0.00062287,0.00008275,0.00012103,0.0000
 9325,0.00017821,0.00013989,0.00009242,0.00356731,-0.00005197,-0.003082
 17,0.00032345,-0.03115057,-0.02008655,-0.00480503,0.00175981,0.0056712
 9,-0.00178803,0.00213143,0.00114928,-0.01277181,-0.14243820,-0.0661586
 7,0.00383576,0.00047966,-0.00128391,0.00013936,-0.00080173,-0.00040325
 ,-0.00000041,-0.00005099,-0.00001541,-0.00006301,-0.00012564,-0.000056
 45,-0.00001793,-0.00006149,-0.00000973,0.00000654,0.00000869,0.0000175
 7,-0.00042989,-0.00006973,-0.00008659,0.00021631,0.00018996,0.00042958
 ,0.00029967,-0.00018877,0.00024011,-0.00011776,0.00020431,-0.00020172,
 -0.00027045,0.00016579,-0.00012962,0.00009147,-0.00012248,0.00007260,-
 0.00024726,0.00011013,-0.00005738,-0.00008499,0.00015306,0.00010762,0.
 00080408,-0.00121907,-0.00103002,-0.00012845,0.00043329,0.00020206,-0.
 00226950,0.00062844,0.00134646,-0.00024745,0.00007910,0.00044711,0.000
 00202,-0.00003890,0.00005224,-0.00000391,0.00000582,0.00000110,-0.0000
 3023,0.00002317,-0.00001866,0.00017419,-0.00000102,0.00009009,-0.00003
 515,0.00004709,-0.00003072,0.00001404,-0.00001262,-0.00000379,0.014358
 02,0.17085415,0.08395415,0.00015456,-0.00006528,0.00002728,-0.00003511
 ,-0.00001731,0.00001005,-0.00023674,0.00003614,0.00003963,-0.00003716,
 0.00002567,-0.00002021,-0.00013251,-0.00003229,-0.00001841,0.00003593,
 0.00002405,-0.00008285,-0.00009414,-0.00078220,0.00046564,0.00045339,0
 .00048405,-0.00051386,-0.00012470,0.00034906,0.00002296,0.00006743,0.0
 0008742,-0.00016920,-0.00067715,-0.00026434,0.00056028,-0.00004044,0.0
 0000662,-0.00040979,0.00000504,-0.00001350,0.00000388,0.00010352,-0.00
 013446,0.00009126,-0.00001264,-0.00001258,0.00000407,-0.00000347,0.000
 00091,-0.00000525,-0.00004250,-0.00000151,0.00002087,0.00000499,0.0000
 2569,0.00001438,-0.00001518,-0.00007805,0.00002970,-0.00000918,0.00007
 815,-0.00004289,-0.00001601,0.00002288,-0.00000306,0.00007912,-0.00001
 451,-0.00014916,-0.00062171,0.00038865,-0.00058089,0.00127039,0.001055
 08,-0.00132746,0.00036619,-0.01413995,0.00274679,-0.00403145,-0.003472
 57,0.00454422,-0.00140463,0.00231209,-0.00205986,-0.00340913,0.0310615
 4,0.00558888,0.00000757,-0.00000617,-0.00000013,0.00001886,0.00001337,
 0.00001938,-0.00001872,0.00004438,-0.00003594,0.00010358,-0.00004657,0
 .00001735,0.00025591,-0.00003325,-0.00001038,-0.00025236,-0.00009043,-
 0.00024245,-0.00001137,0.00000941,0.00007374,0.00829980,-0.00033793,-0
 .00017332,-0.00016614,-0.00002151,-0.00008063,-0.00005626,0.00023210,0
 .00002683,-0.00002574,0.00009914,0.00017920,0.00013516,0.00029002,0.00
 016256,0.00008424,0.00000577,0.00008444,0.00003004,-0.00060132,-0.0001
 5235,0.00051337,0.00124162,0.00015315,-0.00065483,0.00031080,-0.000052
 84,-0.00019396,0.00020077,-0.00008122,-0.00030821,-0.00193091,0.000273
 72,0.00066877,-0.00047731,-0.00051030,0.00048017,-0.00000944,-0.000056
 95,-0.00002183,-0.00020782,-0.00001795,0.00001332,-0.00000164,0.000008
 22,0.00001723,-0.00000226,0.00000574,-0.00000531,0.00001507,-0.0000098
 1,0.00000131,0.00000878,0.00001074,0.00000270,0.00000684,-0.00030781,0
 .00019440,-0.00005518,0.00027415,-0.00018223,-0.00004016,0.00018166,-0
 .00012510,0.00022547,-0.00010809,-0.00010379,-0.00046332,0.00081888,-0
 .00055240,0.00014110,0.00089199,-0.00084046,-0.00160653,-0.01291986,0.
 00487661,0.00155670,0.00258338,-0.00070086,0.00315738,-0.00204088,-0.0
 0595774,0.01490787,-0.52078138,0.05856324,0.00000217,-0.00004653,0.000
 03147,0.00001611,-0.00001033,0.00002884,-0.00004325,0.00006039,-0.0000
 4760,0.00002752,-0.00004353,0.00008282,0.00002315,0.00000968,-0.000111
 14,0.00018106,-0.00005604,0.00010148,-0.00003063,0.00008228,0.00007433
 ,-0.01682020,0.53164280,0.00017671,0.00017170,0.00017077,0.00006272,0.
 00010064,0.00005080,-0.00011960,-0.00011293,-0.00008040,-0.00005227,-0
 .00016204,-0.00013821,-0.00015569,-0.00012575,-0.00009370,-0.00006998,
 -0.00010266,0.00011591,0.00074313,0.00134021,-0.00077582,-0.00214838,-
 0.00085178,0.00123880,-0.00013477,-0.00047064,0.00011705,-0.00024529,-
 0.00014038,0.00034709,0.00328784,-0.00003612,-0.00146215,0.00005813,0.
 00059966,-0.00000925,-0.00000161,0.00003075,0.00003511,0.00010807,0.00
 003260,0.00006581,-0.00001782,-0.00002190,-0.00001426,0.00000008,-0.00
 000141,0.00000159,0.00001918,0.00000229,-0.00000782,-0.00001656,-0.000
 03775,-0.00003266,-0.00018161,0.00012652,-0.00012027,0.00006838,-0.000
 09845,0.00007447,0.00011742,-0.00009373,0.00005335,0.00001195,0.000095
 23,-0.00032534,-0.00063056,0.00056327,-0.00055516,0.00170808,0.0000690
 8,-0.00333472,0.00157027,0.03577897,-0.01212728,0.00032408,-0.00057623
 ,-0.00080843,-0.00372801,-0.00381929,0.00462457,0.00810830,0.02348147,
 -0.01931004,-0.00000572,0.00004158,-0.00001222,0.00000984,-0.00001452,
 0.00001757,-0.00002250,0.00003731,-0.00000255,-0.00008279,0.00014936,-
 0.00009740,0.00035783,-0.00027380,0.00031572,-0.00057601,0.00020247,-0
 .00023476,0.00006573,-0.00003782,-0.00012634,-0.00860856,-0.05584591,0
 .03244018\\-0.00000539,-0.00001519,0.00000054,-0.00000670,0.00000097,-
 0.00000939,0.00001592,-0.00000314,-0.00000282,0.00000618,0.00001410,0.
 00000315,-0.00000795,0.00000334,-0.00000132,-0.00000906,0.00000308,0.0
 0002196,0.00001670,0.00002394,-0.00000563,-0.00003878,-0.00001771,0.00
 002492,-0.00001775,0.00000913,0.00000012,-0.00000173,-0.00000914,0.000
 01684,0.00008072,0.00000072,-0.00002320,0.00001609,-0.00002406,0.00002
 275,-0.00000566,0.00000602,-0.00000242,-0.00000650,0.00000447,-0.00000
 091,0.00000121,0.00000561,0.00000205,0.00000076,0.00000303,-0.00000084
 ,0.00000525,0.00000273,0.00000023,-0.00000054,0.00000091,-0.00000511,-
 0.00000332,-0.00000911,0.00000024,-0.00000808,0.00000200,-0.00000975,0
 .00000284,0.00000632,-0.00001211,0.00000422,-0.00000363,0.00000580,-0.
 00000879,-0.00001065,0.00000164,0.00000488,0.00000270,-0.00001080,-0.0
 0000005,-0.00002917,-0.00000166,0.00001461,0.00003931,-0.00002367,-0.0
 0004642,0.00000253,0.00001336,-0.00000988,0.00000403,0.00000051,0.0000
 0043,-0.00000011,-0.00000586,-0.00000332,-0.00000282,-0.00000322,-0.00
 000178,-0.00000390,-0.00000275,0.00000463,-0.00000286,0.00000193,0.000
 00031,-0.00000073,0.00000203,-0.00000256,-0.00000195,0.00000256,0.0000
 0185,-0.00000022,-0.00000914,0.00000766,-0.00000059,0.00000998\\\@
 The archive entry for this job was punched.


 Sorry, no quote for you today!
 Job cpu time:       2 days 12 hours 36 minutes  7.5 seconds.
 Elapsed time:       0 days  1 hours 41 minutes 47.0 seconds.
 File lengths (MBytes):  RWF=   3392 Int=      0 D2E=      0 Chk=     65 Scr=      1
 Normal termination of Gaussian 16 at Fri Aug  2 00:37:15 2024.
