 Entering Gaussian System, Link 0=g16
 Initial command:
 /apps/gaussian/g16c01/g16/l1.exe "/jobfs/121947833.gadi-pbs/Gau-4138803.inp" -scrdir="/jobfs/121947833.gadi-pbs/"
 Entering Link 1 = /apps/gaussian/g16c01/g16/l1.exe PID=   4138804.
  
 Copyright (c) 1988-2019, Gaussian, Inc.  All Rights Reserved.
  
 This is part of the Gaussian(R) 16 program.  It is based on
 the Gaussian(R) 09 system (copyright 2009, Gaussian, Inc.),
 the Gaussian(R) 03 system (copyright 2003, Gaussian, Inc.),
 the Gaussian(R) 98 system (copyright 1998, Gaussian, Inc.),
 the Gaussian(R) 94 system (copyright 1995, Gaussian, Inc.),
 the Gaussian 92(TM) system (copyright 1992, Gaussian, Inc.),
 the Gaussian 90(TM) system (copyright 1990, Gaussian, Inc.),
 the Gaussian 88(TM) system (copyright 1988, Gaussian, Inc.),
 the Gaussian 86(TM) system (copyright 1986, Carnegie Mellon
 University), and the Gaussian 82(TM) system (copyright 1983,
 Carnegie Mellon University). Gaussian is a federally registered
 trademark of Gaussian, Inc.
  
 This software contains proprietary and confidential information,
 including trade secrets, belonging to Gaussian, Inc.
  
 This software is provided under written license and may be
 used, copied, transmitted, or stored only in accord with that
 written license.
  
 The following legend is applicable only to US Government
 contracts under FAR:
  
                    RESTRICTED RIGHTS LEGEND
  
 Use, reproduction and disclosure by the US Government is
 subject to restrictions as set forth in subparagraphs (a)
 and (c) of the Commercial Computer Software - Restricted
 Rights clause in FAR 52.227-19.
  
 Gaussian, Inc.
 340 Quinnipiac St., Bldg. 40, Wallingford CT 06492
  
  
 ---------------------------------------------------------------
 Warning -- This program may not be used in any manner that
 competes with the business of Gaussian, Inc. or will provide
 assistance to any competitor of Gaussian, Inc.  The licensee
 of this program is prohibited from giving any competitor of
 Gaussian, Inc. access to this program.  By using this program,
 the user acknowledges that Gaussian, Inc. is engaged in the
 business of creating and licensing software in the field of
 computational chemistry and represents and warrants to the
 licensee that it is not a competitor of Gaussian, Inc. and that
 it will not use this program in any manner prohibited above.
 ---------------------------------------------------------------
  

 Cite this work as:
 Gaussian 16, Revision C.01,
 M. J. Frisch, G. W. Trucks, H. B. Schlegel, G. E. Scuseria, 
 M. A. Robb, J. R. Cheeseman, G. Scalmani, V. Barone, 
 G. A. Petersson, H. Nakatsuji, X. Li, M. Caricato, A. V. Marenich, 
 J. Bloino, B. G. Janesko, R. Gomperts, B. Mennucci, H. P. Hratchian, 
 J. V. Ortiz, A. F. Izmaylov, J. L. Sonnenberg, D. Williams-Young, 
 F. Ding, F. Lipparini, F. Egidi, J. Goings, B. Peng, A. Petrone, 
 T. Henderson, D. Ranasinghe, V. G. Zakrzewski, J. Gao, N. Rega, 
 G. Zheng, W. Liang, M. Hada, M. Ehara, K. Toyota, R. Fukuda, 
 J. Hasegawa, M. Ishida, T. Nakajima, Y. Honda, O. Kitao, H. Nakai, 
 T. Vreven, K. Throssell, J. A. Montgomery, Jr., J. E. Peralta, 
 F. Ogliaro, M. J. Bearpark, J. J. Heyd, E. N. Brothers, K. N. Kudin, 
 V. N. Staroverov, T. A. Keith, R. Kobayashi, J. Normand, 
 K. Raghavachari, A. P. Rendell, J. C. Burant, S. S. Iyengar, 
 J. Tomasi, M. Cossi, J. M. Millam, M. Klene, C. Adamo, R. Cammi, 
 J. W. Ochterski, R. L. Martin, K. Morokuma, O. Farkas, 
 J. B. Foresman, and D. J. Fox, Gaussian, Inc., Wallingford CT, 2019.
 
 ******************************************
 Gaussian 16:  ES64L-G16RevC.01  3-Jul-2019
                29-Jul-2024 
 ******************************************
 %chk=gasphase_globalmin_actual_srdimer.chk
 %nprocshared=48
 Will use up to   48 processors via shared memory.
 %mem=60000MB
 ----------------------------------------------------------------------
 #UM06/Gen Opt Freq(noraman) INT(grid=ultrafine) EmpiricalDispersion=GD
 3 SCF=XQC Pop=NPA Pseudo=read
 ----------------------------------------------------------------------
 1/18=20,19=15,26=4,38=1/1,3;
 2/9=110,12=2,17=6,18=5,40=1/2;
 3/5=7,11=2,16=1,17=8,25=1,30=1,71=1,74=-54,75=-5,116=2,124=31/1,2,3;
 4//1;
 5/5=2,8=3,13=1,38=5/2,8;
 6/7=2,8=2,9=2,10=2,28=1,40=-1/1,7;
 7//1,2,3,16;
 1/18=20,19=15,26=4/3(2);
 2/9=110/2;
 99//99;
 2/9=110/2;
 3/5=7,6=1,11=2,16=1,17=8,25=1,30=1,71=1,74=-54,75=-5,82=7,116=2,124=31/1,2,3;
 4/5=5,16=3,69=1/1;
 5/5=2,8=3,13=1,38=5/2,8;
 7//1,2,3,16;
 1/18=20,19=15,26=4/3(-5);
 2/9=110/2;
 6/7=2,8=2,9=2,10=2,19=2,28=1,40=-1/1,7;
 99/9=1/99;


 Symbolic Z-matrix:
 Charge =  1 Multiplicity = 1
 C                    -2.75367  -2.81342  -0.45513 
 C                    -3.21501  -1.45487  -0.93443 
 N                    -2.09063  -0.6317   -1.36992 
 O                    -3.74329  -3.68492  -0.37975 
 O                    -1.60638  -3.0778   -0.13951 
 C                    -2.28511   0.81537  -1.18959 
 P                    -2.08368   1.32292   0.55748 
 O                    -1.64039   2.79949   0.56205 
 O                    -1.20017   0.32568   1.23968 
 O                    -3.53306   1.31887   1.21104 
 H                    -0.71152   2.98563   0.07262 
 Sr                    0.22586  -1.26674   0.11625 
 H                    -3.41613  -4.52523  -0.02177 
 H                    -1.9005   -0.80773  -2.34922 
 H                    -3.99202  -1.58538  -1.69138 
 H                    -3.70442  -0.9883   -0.07545 
 H                    -1.49041   1.32521  -1.73262 
 H                    -3.24318   1.18108  -1.57008 
 C                     3.55239  -1.73924   0.4491 
 O                     4.7671   -2.23295   0.28884 
 O                     2.53947  -2.3951    0.26953 
 C                     3.56499  -0.27764   0.83204 
 N                     2.28223   0.14341   1.39256 
 C                     1.95627   1.56258   1.14976 
 P                     1.46357   1.88701  -0.59443 
 O                     0.99194   0.56977  -1.16337 
 O                     0.51901   3.05791  -0.60472 
 O                     2.81861   2.28822  -1.35049 
 H                     4.71059  -3.15428  -0.00963 
 H                     3.75818   0.26892  -0.0948 
 H                     4.41952  -0.08281   1.48408 
 H                     2.29224  -0.01471   2.39351 
 H                     2.76214   2.24404   1.43689 
 H                     1.08551   1.80582   1.75627 
 H                    -3.87281   2.18822   1.45265 
 H                     2.86213   3.22179  -1.5852 
 

 GradGradGradGradGradGradGradGradGradGradGradGradGradGradGradGradGradGrad
 Berny optimization.
 Initialization pass.
                           ----------------------------
                           !    Initial Parameters    !
                           ! (Angstroms and Degrees)  !
 --------------------------                            --------------------------
 ! Name  Definition              Value          Derivative Info.                !
 --------------------------------------------------------------------------------
 ! R1    R(1,2)                  1.5127         estimate D2E/DX2                !
 ! R2    R(1,4)                  1.3208         estimate D2E/DX2                !
 ! R3    R(1,5)                  1.2189         estimate D2E/DX2                !
 ! R4    R(2,3)                  1.46           estimate D2E/DX2                !
 ! R5    R(2,15)                 1.0926         estimate D2E/DX2                !
 ! R6    R(2,16)                 1.0932         estimate D2E/DX2                !
 ! R7    R(3,6)                  1.4712         estimate D2E/DX2                !
 ! R8    R(3,12)                 2.8246         estimate D2E/DX2                !
 ! R9    R(3,14)                 1.013          estimate D2E/DX2                !
 ! R10   R(4,13)                 0.9702         estimate D2E/DX2                !
 ! R11   R(5,12)                 2.5889         estimate D2E/DX2                !
 ! R12   R(6,7)                  1.8304         estimate D2E/DX2                !
 ! R13   R(6,17)                 1.0892         estimate D2E/DX2                !
 ! R14   R(6,18)                 1.0938         estimate D2E/DX2                !
 ! R15   R(7,8)                  1.5417         estimate D2E/DX2                !
 ! R16   R(7,9)                  1.4968         estimate D2E/DX2                !
 ! R17   R(7,10)                 1.5899         estimate D2E/DX2                !
 ! R18   R(7,12)                 3.4978         estimate D2E/DX2                !
 ! R19   R(8,11)                 1.0663         estimate D2E/DX2                !
 ! R20   R(9,12)                 2.4148         estimate D2E/DX2                !
 ! R21   R(10,35)                0.9641         estimate D2E/DX2                !
 ! R22   R(12,21)                2.5787         estimate D2E/DX2                !
 ! R23   R(12,23)                2.8011         estimate D2E/DX2                !
 ! R24   R(12,25)                3.4617         estimate D2E/DX2                !
 ! R25   R(12,26)                2.3658         estimate D2E/DX2                !
 ! R26   R(19,20)                1.321          estimate D2E/DX2                !
 ! R27   R(19,21)                1.22           estimate D2E/DX2                !
 ! R28   R(19,22)                1.511          estimate D2E/DX2                !
 ! R29   R(20,29)                0.9701         estimate D2E/DX2                !
 ! R30   R(22,23)                1.4618         estimate D2E/DX2                !
 ! R31   R(22,30)                1.0932         estimate D2E/DX2                !
 ! R32   R(22,31)                1.0924         estimate D2E/DX2                !
 ! R33   R(23,24)                1.4762         estimate D2E/DX2                !
 ! R34   R(23,32)                1.0134         estimate D2E/DX2                !
 ! R35   R(24,25)                1.8412         estimate D2E/DX2                !
 ! R36   R(24,33)                1.0937         estimate D2E/DX2                !
 ! R37   R(24,34)                1.0887         estimate D2E/DX2                !
 ! R38   R(25,26)                1.5104         estimate D2E/DX2                !
 ! R39   R(25,27)                1.5044         estimate D2E/DX2                !
 ! R40   R(25,28)                1.6027         estimate D2E/DX2                !
 ! R41   R(28,36)                0.9636         estimate D2E/DX2                !
 ! A1    A(2,1,4)              112.4679         estimate D2E/DX2                !
 ! A2    A(2,1,5)              124.3259         estimate D2E/DX2                !
 ! A3    A(4,1,5)              123.1833         estimate D2E/DX2                !
 ! A4    A(1,2,3)              111.4697         estimate D2E/DX2                !
 ! A5    A(1,2,15)             109.216          estimate D2E/DX2                !
 ! A6    A(1,2,16)             105.7164         estimate D2E/DX2                !
 ! A7    A(3,2,15)             114.1036         estimate D2E/DX2                !
 ! A8    A(3,2,16)             109.787          estimate D2E/DX2                !
 ! A9    A(15,2,16)            106.0804         estimate D2E/DX2                !
 ! A10   A(2,3,6)              114.5957         estimate D2E/DX2                !
 ! A11   A(2,3,12)             110.3591         estimate D2E/DX2                !
 ! A12   A(2,3,14)             109.5688         estimate D2E/DX2                !
 ! A13   A(6,3,12)             105.3708         estimate D2E/DX2                !
 ! A14   A(6,3,14)             108.3146         estimate D2E/DX2                !
 ! A15   A(12,3,14)            108.4011         estimate D2E/DX2                !
 ! A16   A(1,4,13)             109.8702         estimate D2E/DX2                !
 ! A17   A(1,5,12)             122.6823         estimate D2E/DX2                !
 ! A18   A(3,6,7)              112.0362         estimate D2E/DX2                !
 ! A19   A(3,6,17)             107.6287         estimate D2E/DX2                !
 ! A20   A(3,6,18)             113.7046         estimate D2E/DX2                !
 ! A21   A(7,6,17)             105.4125         estimate D2E/DX2                !
 ! A22   A(7,6,18)             109.6151         estimate D2E/DX2                !
 ! A23   A(17,6,18)            108.0076         estimate D2E/DX2                !
 ! A24   A(6,7,8)              107.4607         estimate D2E/DX2                !
 ! A25   A(6,7,9)              108.3752         estimate D2E/DX2                !
 ! A26   A(6,7,10)             106.937          estimate D2E/DX2                !
 ! A27   A(6,7,12)              75.3433         estimate D2E/DX2                !
 ! A28   A(8,7,9)              117.8414         estimate D2E/DX2                !
 ! A29   A(8,7,10)             105.2681         estimate D2E/DX2                !
 ! A30   A(8,7,12)             121.3062         estimate D2E/DX2                !
 ! A31   A(9,7,10)             110.4279         estimate D2E/DX2                !
 ! A32   A(10,7,12)            130.683          estimate D2E/DX2                !
 ! A33   A(7,8,11)             114.6018         estimate D2E/DX2                !
 ! A34   A(7,10,35)            114.9576         estimate D2E/DX2                !
 ! A35   A(3,12,5)              61.6323         estimate D2E/DX2                !
 ! A36   A(3,12,7)              50.0897         estimate D2E/DX2                !
 ! A37   A(3,12,9)              67.1834         estimate D2E/DX2                !
 ! A38   A(3,12,21)            149.9378         estimate D2E/DX2                !
 ! A39   A(3,12,23)            136.7725         estimate D2E/DX2                !
 ! A40   A(3,12,25)             88.8761         estimate D2E/DX2                !
 ! A41   A(3,12,26)             78.8399         estimate D2E/DX2                !
 ! A42   A(5,12,7)              93.6167         estimate D2E/DX2                !
 ! A43   A(5,12,9)              95.125          estimate D2E/DX2                !
 ! A44   A(5,12,21)            109.5572         estimate D2E/DX2                !
 ! A45   A(5,12,23)            156.455          estimate D2E/DX2                !
 ! A46   A(5,12,25)            150.4686         estimate D2E/DX2                !
 ! A47   A(5,12,26)            135.9532         estimate D2E/DX2                !
 ! A48   A(7,12,21)            155.3499         estimate D2E/DX2                !
 ! A49   A(7,12,23)             93.1262         estimate D2E/DX2                !
 ! A50   A(7,12,25)             65.6365         estimate D2E/DX2                !
 ! A51   A(7,12,26)             72.9813         estimate D2E/DX2                !
 ! A52   A(9,12,21)            142.2536         estimate D2E/DX2                !
 ! A53   A(9,12,23)             83.6601         estimate D2E/DX2                !
 ! A54   A(9,12,25)             72.8951         estimate D2E/DX2                !
 ! A55   A(9,12,26)             86.0408         estimate D2E/DX2                !
 ! A56   A(21,12,23)            62.2595         estimate D2E/DX2                !
 ! A57   A(21,12,25)            95.1671         estimate D2E/DX2                !
 ! A58   A(21,12,26)            94.6633         estimate D2E/DX2                !
 ! A59   A(23,12,25)            51.1274         estimate D2E/DX2                !
 ! A60   A(23,12,26)            67.5384         estimate D2E/DX2                !
 ! A61   A(20,19,21)           123.0037         estimate D2E/DX2                !
 ! A62   A(20,19,22)           112.6197         estimate D2E/DX2                !
 ! A63   A(21,19,22)           124.35           estimate D2E/DX2                !
 ! A64   A(19,20,29)           109.7987         estimate D2E/DX2                !
 ! A65   A(12,21,19)           121.2271         estimate D2E/DX2                !
 ! A66   A(19,22,23)           111.6218         estimate D2E/DX2                !
 ! A67   A(19,22,30)           105.6778         estimate D2E/DX2                !
 ! A68   A(19,22,31)           109.2877         estimate D2E/DX2                !
 ! A69   A(23,22,30)           109.643          estimate D2E/DX2                !
 ! A70   A(23,22,31)           113.9657         estimate D2E/DX2                !
 ! A71   A(30,22,31)           106.1795         estimate D2E/DX2                !
 ! A72   A(12,23,22)           108.9343         estimate D2E/DX2                !
 ! A73   A(12,23,24)           104.2957         estimate D2E/DX2                !
 ! A74   A(12,23,32)           112.2561         estimate D2E/DX2                !
 ! A75   A(22,23,24)           114.0534         estimate D2E/DX2                !
 ! A76   A(22,23,32)           108.9726         estimate D2E/DX2                !
 ! A77   A(24,23,32)           108.3387         estimate D2E/DX2                !
 ! A78   A(23,24,25)           112.5995         estimate D2E/DX2                !
 ! A79   A(23,24,33)           113.1481         estimate D2E/DX2                !
 ! A80   A(23,24,34)           107.4438         estimate D2E/DX2                !
 ! A81   A(25,24,33)           109.6369         estimate D2E/DX2                !
 ! A82   A(25,24,34)           105.9225         estimate D2E/DX2                !
 ! A83   A(33,24,34)           107.689          estimate D2E/DX2                !
 ! A84   A(12,25,24)            74.9696         estimate D2E/DX2                !
 ! A85   A(12,25,27)           119.0771         estimate D2E/DX2                !
 ! A86   A(12,25,28)           128.8439         estimate D2E/DX2                !
 ! A87   A(24,25,26)           106.6613         estimate D2E/DX2                !
 ! A88   A(24,25,27)           108.1576         estimate D2E/DX2                !
 ! A89   A(24,25,28)           105.3516         estimate D2E/DX2                !
 ! A90   A(26,25,27)           118.6946         estimate D2E/DX2                !
 ! A91   A(26,25,28)           107.7355         estimate D2E/DX2                !
 ! A92   A(27,25,28)           109.4368         estimate D2E/DX2                !
 ! A93   A(25,28,36)           113.3042         estimate D2E/DX2                !
 ! D1    D(4,1,2,3)           -163.8911         estimate D2E/DX2                !
 ! D2    D(4,1,2,15)           -36.891          estimate D2E/DX2                !
 ! D3    D(4,1,2,16)            76.8625         estimate D2E/DX2                !
 ! D4    D(5,1,2,3)             17.802          estimate D2E/DX2                !
 ! D5    D(5,1,2,15)           144.802          estimate D2E/DX2                !
 ! D6    D(5,1,2,16)          -101.4444         estimate D2E/DX2                !
 ! D7    D(2,1,4,13)          -176.7931         estimate D2E/DX2                !
 ! D8    D(5,1,4,13)             1.5363         estimate D2E/DX2                !
 ! D9    D(2,1,5,12)             9.4739         estimate D2E/DX2                !
 ! D10   D(4,1,5,12)          -168.6566         estimate D2E/DX2                !
 ! D11   D(1,2,3,6)           -149.9621         estimate D2E/DX2                !
 ! D12   D(1,2,3,12)           -31.2245         estimate D2E/DX2                !
 ! D13   D(1,2,3,14)            88.0669         estimate D2E/DX2                !
 ! D14   D(15,2,3,6)            85.7456         estimate D2E/DX2                !
 ! D15   D(15,2,3,12)         -155.5168         estimate D2E/DX2                !
 ! D16   D(15,2,3,14)          -36.2255         estimate D2E/DX2                !
 ! D17   D(16,2,3,6)           -33.1649         estimate D2E/DX2                !
 ! D18   D(16,2,3,12)           85.5727         estimate D2E/DX2                !
 ! D19   D(16,2,3,14)         -155.136          estimate D2E/DX2                !
 ! D20   D(2,3,6,7)             76.2892         estimate D2E/DX2                !
 ! D21   D(2,3,6,17)          -168.2775         estimate D2E/DX2                !
 ! D22   D(2,3,6,18)           -48.6876         estimate D2E/DX2                !
 ! D23   D(12,3,6,7)           -45.2206         estimate D2E/DX2                !
 ! D24   D(12,3,6,17)           70.2127         estimate D2E/DX2                !
 ! D25   D(12,3,6,18)         -170.1974         estimate D2E/DX2                !
 ! D26   D(14,3,6,7)          -161.0592         estimate D2E/DX2                !
 ! D27   D(14,3,6,17)          -45.6258         estimate D2E/DX2                !
 ! D28   D(14,3,6,18)           73.964          estimate D2E/DX2                !
 ! D29   D(2,3,12,5)            25.4805         estimate D2E/DX2                !
 ! D30   D(2,3,12,7)           -97.5517         estimate D2E/DX2                !
 ! D31   D(2,3,12,9)           -84.2322         estimate D2E/DX2                !
 ! D32   D(2,3,12,21)          105.4904         estimate D2E/DX2                !
 ! D33   D(2,3,12,23)         -135.734          estimate D2E/DX2                !
 ! D34   D(2,3,12,25)         -156.1188         estimate D2E/DX2                !
 ! D35   D(2,3,12,26)         -174.6128         estimate D2E/DX2                !
 ! D36   D(6,3,12,5)           149.7041         estimate D2E/DX2                !
 ! D37   D(6,3,12,7)            26.6719         estimate D2E/DX2                !
 ! D38   D(6,3,12,9)            39.9915         estimate D2E/DX2                !
 ! D39   D(6,3,12,21)         -130.286          estimate D2E/DX2                !
 ! D40   D(6,3,12,23)          -11.5104         estimate D2E/DX2                !
 ! D41   D(6,3,12,25)          -31.8952         estimate D2E/DX2                !
 ! D42   D(6,3,12,26)          -50.3892         estimate D2E/DX2                !
 ! D43   D(14,3,12,5)          -94.5167         estimate D2E/DX2                !
 ! D44   D(14,3,12,7)          142.451          estimate D2E/DX2                !
 ! D45   D(14,3,12,9)          155.7706         estimate D2E/DX2                !
 ! D46   D(14,3,12,21)         -14.5068         estimate D2E/DX2                !
 ! D47   D(14,3,12,23)         104.2687         estimate D2E/DX2                !
 ! D48   D(14,3,12,25)          83.884          estimate D2E/DX2                !
 ! D49   D(14,3,12,26)          65.3899         estimate D2E/DX2                !
 ! D50   D(1,5,12,3)           -18.9729         estimate D2E/DX2                !
 ! D51   D(1,5,12,7)            21.1441         estimate D2E/DX2                !
 ! D52   D(1,5,12,9)            41.6273         estimate D2E/DX2                !
 ! D53   D(1,5,12,21)         -167.4022         estimate D2E/DX2                !
 ! D54   D(1,5,12,23)          127.5146         estimate D2E/DX2                !
 ! D55   D(1,5,12,25)          -22.2182         estimate D2E/DX2                !
 ! D56   D(1,5,12,26)          -47.9722         estimate D2E/DX2                !
 ! D57   D(3,6,7,8)            153.5749         estimate D2E/DX2                !
 ! D58   D(3,6,7,9)             25.2316         estimate D2E/DX2                !
 ! D59   D(3,6,7,10)           -93.821          estimate D2E/DX2                !
 ! D60   D(3,6,7,12)            34.8394         estimate D2E/DX2                !
 ! D61   D(17,6,7,8)            36.7999         estimate D2E/DX2                !
 ! D62   D(17,6,7,9)           -91.5435         estimate D2E/DX2                !
 ! D63   D(17,6,7,10)          149.4039         estimate D2E/DX2                !
 ! D64   D(17,6,7,12)          -81.9356         estimate D2E/DX2                !
 ! D65   D(18,6,7,8)           -79.2198         estimate D2E/DX2                !
 ! D66   D(18,6,7,9)           152.4369         estimate D2E/DX2                !
 ! D67   D(18,6,7,10)           33.3843         estimate D2E/DX2                !
 ! D68   D(18,6,7,12)          162.0448         estimate D2E/DX2                !
 ! D69   D(6,7,8,11)           -61.1318         estimate D2E/DX2                !
 ! D70   D(9,7,8,11)            61.5421         estimate D2E/DX2                !
 ! D71   D(10,7,8,11)         -174.8618         estimate D2E/DX2                !
 ! D72   D(12,7,8,11)           22.0248         estimate D2E/DX2                !
 ! D73   D(6,7,10,35)         -112.1862         estimate D2E/DX2                !
 ! D74   D(8,7,10,35)            1.9094         estimate D2E/DX2                !
 ! D75   D(9,7,10,35)          130.0993         estimate D2E/DX2                !
 ! D76   D(12,7,10,35)         162.8056         estimate D2E/DX2                !
 ! D77   D(6,7,12,3)           -21.0743         estimate D2E/DX2                !
 ! D78   D(6,7,12,5)           -68.7345         estimate D2E/DX2                !
 ! D79   D(6,7,12,21)          130.8841         estimate D2E/DX2                !
 ! D80   D(6,7,12,23)          133.8376         estimate D2E/DX2                !
 ! D81   D(6,7,12,25)           89.4565         estimate D2E/DX2                !
 ! D82   D(6,7,12,26)           68.475          estimate D2E/DX2                !
 ! D83   D(8,7,12,3)          -122.8417         estimate D2E/DX2                !
 ! D84   D(8,7,12,5)          -170.5019         estimate D2E/DX2                !
 ! D85   D(8,7,12,21)           29.1167         estimate D2E/DX2                !
 ! D86   D(8,7,12,23)           32.0702         estimate D2E/DX2                !
 ! D87   D(8,7,12,25)          -12.3109         estimate D2E/DX2                !
 ! D88   D(8,7,12,26)          -33.2923         estimate D2E/DX2                !
 ! D89   D(10,7,12,3)           78.845          estimate D2E/DX2                !
 ! D90   D(10,7,12,5)           31.1848         estimate D2E/DX2                !
 ! D91   D(10,7,12,21)        -129.1966         estimate D2E/DX2                !
 ! D92   D(10,7,12,23)        -126.2431         estimate D2E/DX2                !
 ! D93   D(10,7,12,25)        -170.6242         estimate D2E/DX2                !
 ! D94   D(10,7,12,26)         168.3943         estimate D2E/DX2                !
 ! D95   D(3,12,21,19)         116.1522         estimate D2E/DX2                !
 ! D96   D(5,12,21,19)        -176.9756         estimate D2E/DX2                !
 ! D97   D(7,12,21,19)         -17.806          estimate D2E/DX2                !
 ! D98   D(9,12,21,19)         -49.1167         estimate D2E/DX2                !
 ! D99   D(23,12,21,19)        -21.1385         estimate D2E/DX2                !
 ! D100  D(25,12,21,19)         19.4378         estimate D2E/DX2                !
 ! D101  D(26,12,21,19)         40.4362         estimate D2E/DX2                !
 ! D102  D(3,12,23,22)        -122.3062         estimate D2E/DX2                !
 ! D103  D(3,12,23,24)          -0.1597         estimate D2E/DX2                !
 ! D104  D(3,12,23,32)         116.912          estimate D2E/DX2                !
 ! D105  D(5,12,23,22)         102.8743         estimate D2E/DX2                !
 ! D106  D(5,12,23,24)        -134.9792         estimate D2E/DX2                !
 ! D107  D(5,12,23,32)         -17.9075         estimate D2E/DX2                !
 ! D108  D(7,12,23,22)        -150.6572         estimate D2E/DX2                !
 ! D109  D(7,12,23,24)         -28.5106         estimate D2E/DX2                !
 ! D110  D(7,12,23,32)          88.5611         estimate D2E/DX2                !
 ! D111  D(9,12,23,22)        -168.844          estimate D2E/DX2                !
 ! D112  D(9,12,23,24)         -46.6975         estimate D2E/DX2                !
 ! D113  D(9,12,23,32)          70.3742         estimate D2E/DX2                !
 ! D114  D(21,12,23,22)         27.9515         estimate D2E/DX2                !
 ! D115  D(21,12,23,24)        150.098          estimate D2E/DX2                !
 ! D116  D(21,12,23,32)        -92.8303         estimate D2E/DX2                !
 ! D117  D(25,12,23,22)        -95.7347         estimate D2E/DX2                !
 ! D118  D(25,12,23,24)         26.4119         estimate D2E/DX2                !
 ! D119  D(25,12,23,32)        143.4836         estimate D2E/DX2                !
 ! D120  D(26,12,23,22)        -80.5196         estimate D2E/DX2                !
 ! D121  D(26,12,23,24)         41.627          estimate D2E/DX2                !
 ! D122  D(26,12,23,32)        158.6987         estimate D2E/DX2                !
 ! D123  D(3,12,25,24)         141.1889         estimate D2E/DX2                !
 ! D124  D(3,12,25,27)          38.4864         estimate D2E/DX2                !
 ! D125  D(3,12,25,28)        -121.011          estimate D2E/DX2                !
 ! D126  D(5,12,25,24)         144.0446         estimate D2E/DX2                !
 ! D127  D(5,12,25,27)          41.3421         estimate D2E/DX2                !
 ! D128  D(5,12,25,28)        -118.1552         estimate D2E/DX2                !
 ! D129  D(7,12,25,24)          95.2607         estimate D2E/DX2                !
 ! D130  D(7,12,25,27)          -7.4418         estimate D2E/DX2                !
 ! D131  D(7,12,25,28)        -166.9391         estimate D2E/DX2                !
 ! D132  D(9,12,25,24)          74.7526         estimate D2E/DX2                !
 ! D133  D(9,12,25,27)         -27.9499         estimate D2E/DX2                !
 ! D134  D(9,12,25,28)         172.5528         estimate D2E/DX2                !
 ! D135  D(21,12,25,24)        -68.6525         estimate D2E/DX2                !
 ! D136  D(21,12,25,27)       -171.355          estimate D2E/DX2                !
 ! D137  D(21,12,25,28)         29.1477         estimate D2E/DX2                !
 ! D138  D(23,12,25,24)        -20.9673         estimate D2E/DX2                !
 ! D139  D(23,12,25,27)       -123.6698         estimate D2E/DX2                !
 ! D140  D(23,12,25,28)         76.8329         estimate D2E/DX2                !
 ! D141  D(21,19,20,29)          1.7396         estimate D2E/DX2                !
 ! D142  D(22,19,20,29)       -176.4583         estimate D2E/DX2                !
 ! D143  D(20,19,21,12)       -167.0845         estimate D2E/DX2                !
 ! D144  D(22,19,21,12)         10.9006         estimate D2E/DX2                !
 ! D145  D(20,19,22,23)       -162.7135         estimate D2E/DX2                !
 ! D146  D(20,19,22,30)         78.1545         estimate D2E/DX2                !
 ! D147  D(20,19,22,31)        -35.727          estimate D2E/DX2                !
 ! D148  D(21,19,22,23)         19.117          estimate D2E/DX2                !
 ! D149  D(21,19,22,30)       -100.015          estimate D2E/DX2                !
 ! D150  D(21,19,22,31)        146.1035         estimate D2E/DX2                !
 ! D151  D(19,22,23,12)        -34.1006         estimate D2E/DX2                !
 ! D152  D(19,22,23,24)       -150.1402         estimate D2E/DX2                !
 ! D153  D(19,22,23,32)         88.6753         estimate D2E/DX2                !
 ! D154  D(30,22,23,12)         82.6507         estimate D2E/DX2                !
 ! D155  D(30,22,23,24)        -33.3889         estimate D2E/DX2                !
 ! D156  D(30,22,23,32)       -154.5735         estimate D2E/DX2                !
 ! D157  D(31,22,23,12)       -158.5046         estimate D2E/DX2                !
 ! D158  D(31,22,23,24)         85.4558         estimate D2E/DX2                !
 ! D159  D(31,22,23,32)        -35.7288         estimate D2E/DX2                !
 ! D160  D(12,23,24,25)        -44.8493         estimate D2E/DX2                !
 ! D161  D(12,23,24,33)       -169.8677         estimate D2E/DX2                !
 ! D162  D(12,23,24,34)         71.3997         estimate D2E/DX2                !
 ! D163  D(22,23,24,25)         73.8643         estimate D2E/DX2                !
 ! D164  D(22,23,24,33)        -51.1541         estimate D2E/DX2                !
 ! D165  D(22,23,24,34)       -169.8867         estimate D2E/DX2                !
 ! D166  D(32,23,24,25)       -164.6            estimate D2E/DX2                !
 ! D167  D(32,23,24,33)         70.3816         estimate D2E/DX2                !
 ! D168  D(32,23,24,34)        -48.351          estimate D2E/DX2                !
 ! D169  D(23,24,25,12)         34.9307         estimate D2E/DX2                !
 ! D170  D(23,24,25,26)         22.4046         estimate D2E/DX2                !
 ! D171  D(23,24,25,27)        151.1309         estimate D2E/DX2                !
 ! D172  D(23,24,25,28)        -91.9198         estimate D2E/DX2                !
 ! D173  D(33,24,25,12)        161.8451         estimate D2E/DX2                !
 ! D174  D(33,24,25,26)        149.319          estimate D2E/DX2                !
 ! D175  D(33,24,25,27)        -81.9548         estimate D2E/DX2                !
 ! D176  D(33,24,25,28)         34.9946         estimate D2E/DX2                !
 ! D177  D(34,24,25,12)        -82.2248         estimate D2E/DX2                !
 ! D178  D(34,24,25,26)        -94.7509         estimate D2E/DX2                !
 ! D179  D(34,24,25,27)         33.9754         estimate D2E/DX2                !
 ! D180  D(34,24,25,28)        150.9248         estimate D2E/DX2                !
 ! D181  D(12,25,28,36)        168.3887         estimate D2E/DX2                !
 ! D182  D(24,25,28,36)       -108.746          estimate D2E/DX2                !
 ! D183  D(26,25,28,36)        137.6782         estimate D2E/DX2                !
 ! D184  D(27,25,28,36)          7.3305         estimate D2E/DX2                !
 --------------------------------------------------------------------------------
 Trust Radius=3.00D-01 FncErr=1.00D-07 GrdErr=1.00D-06 EigMax=2.50D+02 EigMin=1.00D-04
 Number of steps in this run=    216 maximum allowed number of steps=    216.
 GradGradGradGradGradGradGradGradGradGradGradGradGradGradGradGradGradGrad

                          Input orientation:                          
 ---------------------------------------------------------------------
 Center     Atomic      Atomic             Coordinates (Angstroms)
 Number     Number       Type             X           Y           Z
 ---------------------------------------------------------------------
      1          6           0       -2.753672   -2.813417   -0.455133
      2          6           0       -3.215013   -1.454874   -0.934430
      3          7           0       -2.090626   -0.631704   -1.369925
      4          8           0       -3.743288   -3.684916   -0.379745
      5          8           0       -1.606384   -3.077801   -0.139508
      6          6           0       -2.285112    0.815366   -1.189589
      7         15           0       -2.083677    1.322916    0.557476
      8          8           0       -1.640392    2.799486    0.562052
      9          8           0       -1.200172    0.325684    1.239685
     10          8           0       -3.533057    1.318865    1.211041
     11          1           0       -0.711518    2.985629    0.072617
     12         38           0        0.225860   -1.266737    0.116251
     13          1           0       -3.416126   -4.525228   -0.021774
     14          1           0       -1.900501   -0.807729   -2.349221
     15          1           0       -3.992017   -1.585383   -1.691381
     16          1           0       -3.704415   -0.988301   -0.075447
     17          1           0       -1.490407    1.325209   -1.732621
     18          1           0       -3.243183    1.181079   -1.570079
     19          6           0        3.552389   -1.739243    0.449098
     20          8           0        4.767097   -2.232952    0.288840
     21          8           0        2.539474   -2.395104    0.269529
     22          6           0        3.564987   -0.277641    0.832037
     23          7           0        2.282231    0.143411    1.392562
     24          6           0        1.956274    1.562576    1.149757
     25         15           0        1.463574    1.887013   -0.594426
     26          8           0        0.991938    0.569766   -1.163367
     27          8           0        0.519012    3.057908   -0.604723
     28          8           0        2.818610    2.288218   -1.350492
     29          1           0        4.710591   -3.154280   -0.009626
     30          1           0        3.758176    0.268915   -0.094797
     31          1           0        4.419523   -0.082814    1.484076
     32          1           0        2.292243   -0.014709    2.393507
     33          1           0        2.762139    2.244036    1.436885
     34          1           0        1.085513    1.805825    1.756268
     35          1           0       -3.872806    2.188215    1.452651
     36          1           0        2.862132    3.221791   -1.585200
 ---------------------------------------------------------------------
                    Distance matrix (angstroms):
                    1          2          3          4          5
     1  C    0.000000
     2  C    1.512680   0.000000
     3  N    2.456898   1.459969   0.000000
     4  O    1.320808   2.357931   3.610243   0.000000
     5  O    1.218929   2.419397   2.780613   2.234426   0.000000
     6  C    3.731895   2.466538   1.471176   4.799444   4.089022
     7  P    4.310861   3.349899   2.745080   5.358272   4.481061
     8  O    5.811947   4.776867   3.963370   6.881614   5.919109
     9  O    3.890980   3.457853   2.918829   5.017460   3.694712
    10  O    4.523199   3.521055   3.542134   5.254771   4.986655
    11  H    6.170724   5.196123   4.131339   7.341146   6.132778
    12  Sr   3.405336   3.602629   2.824552   4.674157   2.588916
    13  H    1.885986   3.209434   4.328279   0.970208   2.320360
    14  H    2.887604   2.036756   1.012993   3.943717   3.181598
    15  H    2.137726   1.092585   2.151308   2.488029   3.213544
    16  H    2.092635   1.093186   2.099321   2.714008   2.961731
    17  H    4.511766   3.367526   2.078778   5.657481   4.683798
    18  H    4.175969   2.711658   2.157459   5.034372   4.781600
    19  C    6.460487   6.913229   6.031509   7.596020   5.362008
    20  O    7.579736   8.112698   7.234905   8.659206   6.443486
    21  O    5.358873   5.953795   5.218737   6.446570   4.221555
    22  C    6.929100   7.104554   6.079470   8.154068   5.960527
    23  N    6.125123   6.179732   5.230106   7.355544   5.276815
    24  C    6.626355   6.339641   5.247957   7.896870   5.990646
    25  P    6.316534   5.759599   4.424666   7.629147   5.854996
    26  O    5.096775   4.674399   3.314874   6.413948   4.593943
    27  O    6.723488   5.866587   4.583555   7.980193   6.510043
    28  O    7.607804   7.112556   5.711998   8.926320   7.059832
    29  H    7.485312   8.158335   7.380403   8.478598   6.318773
    30  H    7.213514   7.231998   6.053556   8.484452   6.323054
    31  H    7.916530   8.125137   7.129421   9.114848   6.922249
    32  H    6.434965   6.593868   5.809788   7.588740   5.567584
    33  H    7.718921   7.418316   6.300586   8.987391   7.063354
    34  H    6.400549   6.030467   5.079615   7.617618   5.889829
    35  H    5.468859   4.404877   4.369787   6.153708   5.950006
    36  H    8.320939   7.695867   6.278978   9.632615   7.857641
                    6          7          8          9         10
     6  C    0.000000
     7  P    1.830415   0.000000
     8  O    2.724085   1.541681   0.000000
     9  O    2.705227   1.496817   2.602436   0.000000
    10  O    2.752072   1.589927   2.489098   2.535662   0.000000
    11  H    2.963005   2.209642   1.066303   2.945528   3.469177
    12  Sr   3.513596   3.497849   4.496199   2.414845   4.691840
    13  H    5.582556   6.025923   7.559466   5.480245   5.973854
    14  H    2.031529   3.608614   4.642754   3.828229   4.456805
    15  H    2.988130   4.142140   5.462159   4.476352   4.131508
    16  H    2.551264   2.892941   4.360496   3.118872   2.647155
    17  H    1.089211   2.365697   2.731577   3.149268   3.582961
    18  H    1.093808   2.427151   3.119961   3.577760   2.799579
    19  C    6.579342   6.415123   6.897666   5.241735   7.754749
    20  O    7.823788   7.723307   8.152055   6.561937   9.075154
    21  O    5.976017   5.939707   6.673876   4.725341   7.180227
    22  C    6.285324   5.877463   6.052898   4.820469   7.285239
    23  N    5.289579   4.598886   4.809517   3.490519   5.935673
    24  C    4.901043   4.090164   3.848552   3.391333   5.495081
    25  P    3.944020   3.772012   3.435790   3.591274   5.343110
    26  O    3.286345   3.603879   3.857186   3.261836   5.164740
    27  O    3.637880   3.336899   2.468030   3.717859   4.768704
    28  O    5.314430   5.348324   4.878721   5.168285   6.916992
    29  H    8.129592   8.156529   8.724054   6.971947   9.458160
    30  H    6.165915   5.971903   5.998314   5.135102   7.481289
    31  H    7.273744   6.717609   6.773504   5.639820   8.079776
    32  H    5.871948   4.930408   5.171029   3.693796   6.091860
    33  H    5.866362   5.010365   4.522846   4.406685   6.366824
    34  H    4.584779   3.422582   3.137527   2.771648   4.676066
    35  H    3.374450   2.179693   2.480018   3.264560   0.964144
    36  H    5.695744   5.714701   5.006171   5.733212   7.234538
                   11         12         13         14         15
    11  H    0.000000
    12  Sr   4.354675   0.000000
    13  H    7.983532   4.888853   0.000000
    14  H    4.654948   3.287956   4.640467   0.000000
    15  H    5.896398   4.599952   3.429566   2.326358   0.000000
    16  H    4.977095   3.944787   3.549063   2.908051   1.746558
    17  H    2.573431   3.616916   6.392418   2.257830   3.838138
    18  H    3.516273   4.568344   5.915158   2.522937   2.868585
    19  C    6.375505   3.376365   7.519550   6.199380   7.843684
    20  O    7.569384   4.646094   8.503890   7.310779   9.003482
    21  O    6.289675   2.578665   6.331782   5.393607   6.867400
    22  C    5.432692   3.555338   8.216261   6.346098   8.073793
    23  N    4.333935   2.801097   7.501187   5.692175   7.201779
    24  C    3.209740   3.473827   8.203446   5.721530   7.305058
    25  P    2.526446   3.461666   8.078133   4.653809   6.559292
    26  O    3.204031   2.365806   6.833244   3.416130   5.455572
    27  O    1.406492   4.394120   8.563241   4.882670   6.564325
    28  O    3.869552   4.638038   9.330621   5.731698   7.842553
    29  H    8.191734   4.867388   8.241552   7.395035   9.001395
    30  H    5.233233   3.857463   8.629007   6.185646   8.127299
    31  H    6.142894   4.567212   9.132362   7.427138   9.115659
    32  H    4.838506   3.320151   7.665758   6.379769   7.658018
    33  H    3.804929   4.527947   9.280172   6.737068   8.370730
    34  H    2.730557   3.587380   7.969217   5.709815   7.011982
    35  H    3.540353   5.524647   6.888600   5.226844   4.913165
    36  H    3.946531   5.476472  10.093420   6.285175   8.372547
                   16         17         18         19         20
    16  H    0.000000
    17  H    3.605605   0.000000
    18  H    2.674484   1.766187   0.000000
    19  C    7.314388   6.291307   7.667147   0.000000
    20  O    8.570203   7.476842   8.903694   1.320964   0.000000
    21  O    6.409701   5.838602   7.043604   1.219998   2.233600
    22  C    7.360216   5.890976   7.365405   1.510988   2.358681
    23  N    6.267037   5.039465   6.354855   2.459231   3.611076
    24  C    6.328626   4.499340   5.880255   3.733700   4.800827
    25  P    5.936740   3.215138   4.858374   4.312983   5.354207
    26  O    5.066248   2.656460   4.298297   3.806241   4.920971
    27  O    5.872757   2.883083   4.313758   5.772744   6.843820
    28  O    7.410208   4.431821   6.165980   4.471845   5.188930
    29  H    8.689541   7.841358   9.192000   1.885255   0.970113
    30  H    7.567776   5.598736   7.213010   2.090663   2.724783
    31  H    8.321682   6.874368   8.345199   2.137021   2.484450
    32  H    6.557707   5.755758   6.912369   2.888376   3.933844
    33  H    7.385897   5.382765   6.799676   4.179322   5.037984
    34  H    5.840011   4.363336   5.494770   4.512391   5.658544
    35  H    3.528979   4.070204   3.247713   8.459644   9.774922
    36  H    7.945046   4.750089   6.437359   5.406170   6.074137
                   21         22         23         24         25
    21  O    0.000000
    22  C    2.419037   0.000000
    23  N    2.787730   1.461827   0.000000
    24  C    4.096114   2.464812   1.476222   0.000000
    25  P    4.498945   3.337133   2.767394   1.841246   0.000000
    26  O    3.638476   3.364568   2.894721   2.695581   1.510389
    27  O    5.880639   4.740055   3.948718   2.716604   1.504426
    28  O    4.963456   3.450238   3.523102   2.742522   1.602724
    29  H    2.316899   3.208716   4.328722   5.583830   6.024927
    30  H    2.952112   1.093191   2.099143   2.543486   2.851853
    31  H    3.218135   1.092403   2.151179   2.981052   4.115583
    32  H    3.199795   2.031551   1.013406   2.036570   3.637441
    33  H    4.788937   2.714638   2.155203   1.093731   2.437203
    34  H    4.687451   3.367911   2.080392   1.088692   2.382285
    35  H    7.970190   7.860431   6.486086   5.870379   5.723478
    36  H    5.923988   4.310807   4.322011   3.324690   2.172379
                   26         27         28         29         30
    26  O    0.000000
    27  O    2.593568   0.000000
    28  O    2.514921   2.537074   0.000000
    29  H    5.387765   7.517629   5.915936   0.000000
    30  H    2.980676   4.304728   2.556783   3.554239   0.000000
    31  H    4.379858   5.425975   4.027343   3.427793   1.747551
    32  H    3.831939   4.644857   4.426970   4.634691   2.901906
    33  H    3.563440   3.140409   2.788299   5.918671   2.690583
    34  H    3.171887   2.731833   3.590026   6.392355   3.596061
    35  H    5.755750   4.927192   7.255526  10.215440   8.019363
    36  H    3.272431   2.545271   0.963607   6.823013   3.426904
                   31         32         33         34         35
    31  H    0.000000
    32  H    2.314525   0.000000
    33  H    2.857163   2.497570   0.000000
    34  H    3.841441   2.275217   1.762132   0.000000
    35  H    8.597749   6.614069   6.635199   4.982303   0.000000
    36  H    4.771408   5.160408   3.177893   4.040636   7.460308
                   36
    36  H    0.000000
 Stoichiometry    C6H15N2O10P2Sr(1+)
 Framework group  C1[X(C6H15N2O10P2Sr)]
 Deg. of freedom   102
 Full point group                 C1      NOp   1
 Largest Abelian subgroup         C1      NOp   1
 Largest concise Abelian subgroup C1      NOp   1
                         Standard orientation:                         
 ---------------------------------------------------------------------
 Center     Atomic      Atomic             Coordinates (Angstroms)
 Number     Number       Type             X           Y           Z
 ---------------------------------------------------------------------
      1          6           0       -3.137265    2.256046    0.312444
      2          6           0       -3.430921    0.844103    0.768933
      3          7           0       -2.228052    0.181781    1.264862
      4          8           0       -4.232532    2.982829    0.183179
      5          8           0       -2.022528    2.678224    0.057658
      6          6           0       -2.210744   -1.277242    1.076953
      7         15           0       -1.849149   -1.742230   -0.656095
      8          8           0       -1.206291   -3.143319   -0.634616
      9          8           0       -1.077303   -0.628638   -1.292198
     10          8           0       -3.248638   -1.934839   -1.385617
     11          1           0       -0.287731   -3.202061   -0.096287
     12         38           0        0.053504    1.139224   -0.097453
     13          1           0       -4.006306    3.862295   -0.158381
     14          1           0       -2.116038    0.376871    2.252560
     15          1           0       -4.257355    0.861711    1.483383
     16          1           0       -3.805079    0.319220   -0.113994
     17          1           0       -1.382933   -1.675416    1.662245
     18          1           0       -3.127757   -1.773989    1.406722
     19          6           0        3.295597    2.068791   -0.254214
     20          8           0        4.420185    2.724724   -0.030607
     21          8           0        2.193659    2.577351   -0.129747
     22          6           0        3.530408    0.625136   -0.633434
     23          7           0        2.349592    0.034013   -1.260479
     24          6           0        2.210692   -1.417927   -1.032864
     25         15           0        1.676260   -1.817166    0.683287
     26          8           0        0.997619   -0.580966    1.224149
     27          8           0        0.903501   -3.107403    0.645486
     28          8           0        3.031963   -2.031510    1.510844
     29          1           0        4.221130    3.627705    0.262858
     30          1           0        3.748156    0.105309    0.303279
     31          1           0        4.436880    0.553953   -1.238898
     32          1           0        2.390440    0.197638   -2.259754
     33          1           0        3.117078   -1.979848   -1.275677
     34          1           0        1.415168   -1.775759   -1.684285
     35          1           0       -3.451661   -2.841425   -1.643411
     36          1           0        3.191738   -2.951417    1.749135
 ---------------------------------------------------------------------
 Rotational constants (GHZ):           0.2877104           0.1976502           0.1342695
 General basis read from cards:  (5D, 7F)
 ======================================================================================================
                                       Pseudopotential Parameters
 ======================================================================================================
  Center     Atomic      Valence      Angular      Power
  Number     Number     Electrons     Momentum     of R      Exponent        Coefficient   SO-Coeffient
 ======================================================================================================
    1          6
                                   No pseudopotential on this center.
    2          6
                                   No pseudopotential on this center.
    3          7
                                   No pseudopotential on this center.
    4          8
                                   No pseudopotential on this center.
    5          8
                                   No pseudopotential on this center.
    6          6
                                   No pseudopotential on this center.
    7         15
                                   No pseudopotential on this center.
    8          8
                                   No pseudopotential on this center.
    9          8
                                   No pseudopotential on this center.
   10          8
                                   No pseudopotential on this center.
   11          1
                                   No pseudopotential on this center.
   12         38           10
                                      G and up 
                                                     2        1.0000000        0.00000000    0.00000000
                                      S - G
                                                     2        7.4000740      135.47943000    0.00000000
                                                     2        3.6063790       17.53446300    0.00000000
                                      P - G
                                                     2        6.4848680       88.35970900    0.00000000
                                                     2        3.2880530       15.39437200    0.00000000
                                      D - G
                                                     2        4.6228410       29.88898700    0.00000000
                                                     2        2.2469040        6.65941400    0.00000000
                                      F - G
                                                     2        4.6339750      -15.80599200    0.00000000
   13          1
                                   No pseudopotential on this center.
   14          1
                                   No pseudopotential on this center.
   15          1
                                   No pseudopotential on this center.
   16          1
                                   No pseudopotential on this center.
   17          1
                                   No pseudopotential on this center.
   18          1
                                   No pseudopotential on this center.
   19          6
                                   No pseudopotential on this center.
   20          8
                                   No pseudopotential on this center.
   21          8
                                   No pseudopotential on this center.
   22          6
                                   No pseudopotential on this center.
   23          7
                                   No pseudopotential on this center.
   24          6
                                   No pseudopotential on this center.
   25         15
                                   No pseudopotential on this center.
   26          8
                                   No pseudopotential on this center.
   27          8
                                   No pseudopotential on this center.
   28          8
                                   No pseudopotential on this center.
   29          1
                                   No pseudopotential on this center.
   30          1
                                   No pseudopotential on this center.
   31          1
                                   No pseudopotential on this center.
   32          1
                                   No pseudopotential on this center.
   33          1
                                   No pseudopotential on this center.
   34          1
                                   No pseudopotential on this center.
   35          1
                                   No pseudopotential on this center.
   36          1
                                   No pseudopotential on this center.
 ======================================================================================================
 There are   858 symmetry adapted cartesian basis functions of A   symmetry.
 There are   755 symmetry adapted basis functions of A   symmetry.
   755 basis functions,  1234 primitive gaussians,   858 cartesian basis functions
    92 alpha electrons       92 beta electrons
       nuclear repulsion energy      2401.9045532487 Hartrees.
 NAtoms=   36 NActive=   36 NUniq=   36 SFac= 1.00D+00 NAtFMM=   60 NAOKFM=F Big=F
 Integral buffers will be    131072 words long.
 Raffenetti 2 integral format.
 Two-electron integral symmetry is turned on.
 Nuclear repulsion after empirical dispersion term =     2401.8972434821 Hartrees.
 One-electron integrals computed using PRISM.
   1 Symmetry operations used in ECPInt.
 ECPInt:  NShTT=   44253 NPrTT=  137549 LenC2=   37200 LenP2D=   80443.
 LDataN:  DoStor=T MaxTD1= 7 Len=  274
 NBasis=   755 RedAO= T EigKep=  2.08D-04  NBF=   755
 NBsUse=   755 1.00D-06 EigRej= -1.00D+00 NBFU=   755
 Defaulting to unpruned grid for atomic number  38.
 ExpMin= 2.33D-02 ExpMax= 5.24D+04 ExpMxC= 1.79D+03 IAcc=3 IRadAn=         5 AccDes= 0.00D+00
 Harris functional with IExCor= 1009 and IRadAn=       5 diagonalized for initial guess.
 HarFok:  IExCor= 1009 AccDes= 0.00D+00 IRadAn=         5 IDoV= 1 UseB2=F ITyADJ=14
 ICtDFT=  3500011 ScaDFX=  1.000000  1.000000  1.000000  1.000000
 Defaulting to unpruned grid for atomic number  38.
 FoFCou: FMM=F IPFlag=           0 FMFlag=      100000 FMFlg1=           0
         NFxFlg=           0 DoJE=T BraDBF=F KetDBF=T FulRan=T
         wScrn=  0.000000 ICntrl=       500 IOpCl=  0 I1Cent=   200000004 NGrid=           0
         NMat0=    1 NMatS0=      1 NMatT0=    0 NMatD0=    1 NMtDS0=    0 NMtDT0=    0
 Petite list used in FoFCou.
 Initial guess <Sx>= 0.0000 <Sy>= 0.0000 <Sz>= 0.0000 <S**2>=-0.0000 S=-0.0000
 Requested convergence on RMS density matrix=1.00D-08 within  32 cycles.
 Requested convergence on MAX density matrix=1.00D-06.
 Requested convergence on             energy=1.00D-06.
 No special actions if energy rises.
 Defaulting to unpruned grid for atomic number  38.
 Defaulting to unpruned grid for atomic number  38.
 Defaulting to unpruned grid for atomic number  38.
 Defaulting to unpruned grid for atomic number  38.
 Defaulting to unpruned grid for atomic number  38.
 Defaulting to unpruned grid for atomic number  38.
 Defaulting to unpruned grid for atomic number  38.
 Defaulting to unpruned grid for atomic number  38.
 Defaulting to unpruned grid for atomic number  38.
 Defaulting to unpruned grid for atomic number  38.
 Defaulting to unpruned grid for atomic number  38.
 Defaulting to unpruned grid for atomic number  38.
 Defaulting to unpruned grid for atomic number  38.
 Defaulting to unpruned grid for atomic number  38.
 Defaulting to unpruned grid for atomic number  38.
 Defaulting to unpruned grid for atomic number  38.
 Defaulting to unpruned grid for atomic number  38.
 Defaulting to unpruned grid for atomic number  38.
 Defaulting to unpruned grid for atomic number  38.
 Defaulting to unpruned grid for atomic number  38.
 Defaulting to unpruned grid for atomic number  38.
 Defaulting to unpruned grid for atomic number  38.
 Defaulting to unpruned grid for atomic number  38.
 Defaulting to unpruned grid for atomic number  38.
 Defaulting to unpruned grid for atomic number  38.
 Defaulting to unpruned grid for atomic number  38.
 Defaulting to unpruned grid for atomic number  38.
 Defaulting to unpruned grid for atomic number  38.
 Defaulting to unpruned grid for atomic number  38.
 Defaulting to unpruned grid for atomic number  38.
 Defaulting to unpruned grid for atomic number  38.
 Defaulting to unpruned grid for atomic number  38.
 Defaulting to unpruned grid for atomic number  38.
 Defaulting to unpruned grid for atomic number  38.
 Defaulting to unpruned grid for atomic number  38.
 Defaulting to unpruned grid for atomic number  38.
 Defaulting to unpruned grid for atomic number  38.
 Defaulting to unpruned grid for atomic number  38.
 Defaulting to unpruned grid for atomic number  38.
 Defaulting to unpruned grid for atomic number  38.
 Defaulting to unpruned grid for atomic number  38.
 Defaulting to unpruned grid for atomic number  38.
 Defaulting to unpruned grid for atomic number  38.
 Defaulting to unpruned grid for atomic number  38.
 Defaulting to unpruned grid for atomic number  38.
 Defaulting to unpruned grid for atomic number  38.
 Defaulting to unpruned grid for atomic number  38.
 Defaulting to unpruned grid for atomic number  38.
 SCF Done:  E(UM06) =  -1812.97727752     A.U. after   13 cycles
            NFock= 13  Conv=0.35D-08     -V/T= 2.0151
 <Sx>= 0.0000 <Sy>= 0.0000 <Sz>= 0.0000 <S**2>=-0.0000 S=-0.0000
 <L.S>= 0.000000000000E+00
 Annihilation of the first spin contaminant:
 S**2 before annihilation    -0.0000,   after    -0.0000
 QCSCF skips out because SCF is already converged.

 **********************************************************************

            Population analysis using the SCF Density.

 **********************************************************************

 Orbital symmetries:
 Alpha Orbitals:
       Occupied  (A) (A) (A) (A) (A) (A) (A) (A) (A) (A) (A) (A)
                 (A) (A) (A) (A) (A) (A) (A) (A) (A) (A) (A) (A)
                 (A) (A) (A) (A) (A) (A) (A) (A) (A) (A) (A) (A)
                 (A) (A) (A) (A) (A) (A) (A) (A) (A) (A) (A) (A)
                 (A) (A) (A) (A) (A) (A) (A) (A) (A) (A) (A) (A)
                 (A) (A) (A) (A) (A) (A) (A) (A) (A) (A) (A) (A)
                 (A) (A) (A) (A) (A) (A) (A) (A) (A) (A) (A) (A)
                 (A) (A) (A) (A) (A) (A) (A) (A)
       Virtual   (A) (A) (A) (A) (A) (A) (A) (A) (A) (A) (A) (A)
                 (A) (A) (A) (A) (A) (A) (A) (A) (A) (A) (A) (A)
                 (A) (A) (A) (A) (A) (A) (A) (A) (A) (A) (A) (A)
                 (A) (A) (A) (A) (A) (A) (A) (A) (A) (A) (A) (A)
                 (A) (A) (A) (A) (A) (A) (A) (A) (A) (A) (A) (A)
                 (A) (A) (A) (A) (A) (A) (A) (A) (A) (A) (A) (A)
                 (A) (A) (A) (A) (A) (A) (A) (A) (A) (A) (A) (A)
                 (A) (A) (A) (A) (A) (A) (A) (A) (A) (A) (A) (A)
                 (A) (A) (A) (A) (A) (A) (A) (A) (A) (A) (A) (A)
                 (A) (A) (A) (A) (A) (A) (A) (A) (A) (A) (A) (A)
                 (A) (A) (A) (A) (A) (A) (A) (A) (A) (A) (A) (A)
                 (A) (A) (A) (A) (A) (A) (A) (A) (A) (A) (A) (A)
                 (A) (A) (A) (A) (A) (A) (A) (A) (A) (A) (A) (A)
                 (A) (A) (A) (A) (A) (A) (A) (A) (A) (A) (A) (A)
                 (A) (A) (A) (A) (A) (A) (A) (A) (A) (A) (A) (A)
                 (A) (A) (A) (A) (A) (A) (A) (A) (A) (A) (A) (A)
                 (A) (A) (A) (A) (A) (A) (A) (A) (A) (A) (A) (A)
                 (A) (A) (A) (A) (A) (A) (A) (A) (A) (A) (A) (A)
                 (A) (A) (A) (A) (A) (A) (A) (A) (A) (A) (A) (A)
                 (A) (A) (A) (A) (A) (A) (A) (A) (A) (A) (A) (A)
                 (A) (A) (A) (A) (A) (A) (A) (A) (A) (A) (A) (A)
                 (A) (A) (A) (A) (A) (A) (A) (A) (A) (A) (A) (A)
                 (A) (A) (A) (A) (A) (A) (A) (A) (A) (A) (A) (A)
                 (A) (A) (A) (A) (A) (A) (A) (A) (A) (A) (A) (A)
                 (A) (A) (A) (A) (A) (A) (A) (A) (A) (A) (A) (A)
                 (A) (A) (A) (A) (A) (A) (A) (A) (A) (A) (A) (A)
                 (A) (A) (A) (A) (A) (A) (A) (A) (A) (A) (A) (A)
                 (A) (A) (A) (A) (A) (A) (A) (A) (A) (A) (A) (A)
                 (A) (A) (A) (A) (A) (A) (A) (A) (A) (A) (A) (A)
                 (A) (A) (A) (A) (A) (A) (A) (A) (A) (A) (A) (A)
                 (A) (A) (A) (A) (A) (A) (A) (A) (A) (A) (A) (A)
                 (A) (A) (A) (A) (A) (A) (A) (A) (A) (A) (A) (A)
                 (A) (A) (A) (A) (A) (A) (A) (A) (A) (A) (A) (A)
                 (A) (A) (A) (A) (A) (A) (A) (A) (A) (A) (A) (A)
                 (A) (A) (A) (A) (A) (A) (A) (A) (A) (A) (A) (A)
                 (A) (A) (A) (A) (A) (A) (A) (A) (A) (A) (A) (A)
                 (A) (A) (A) (A) (A) (A) (A) (A) (A) (A) (A) (A)
                 (A) (A) (A) (A) (A) (A) (A) (A) (A) (A) (A) (A)
                 (A) (A) (A) (A) (A) (A) (A) (A) (A) (A) (A) (A)
                 (A) (A) (A) (A) (A) (A) (A) (A) (A) (A) (A) (A)
                 (A) (A) (A) (A) (A) (A) (A) (A) (A) (A) (A) (A)
                 (A) (A) (A) (A) (A) (A) (A) (A) (A) (A) (A) (A)
                 (A) (A) (A) (A) (A) (A) (A) (A) (A) (A) (A) (A)
                 (A) (A) (A) (A) (A) (A) (A) (A) (A) (A) (A) (A)
                 (A) (A) (A) (A) (A) (A) (A) (A) (A) (A) (A) (A)
                 (A) (A) (A) (A) (A) (A) (A) (A) (A) (A) (A) (A)
                 (A) (A) (A) (A) (A) (A) (A) (A) (A) (A) (A) (A)
                 (A) (A) (A) (A) (A) (A) (A) (A) (A) (A) (A) (A)
                 (A) (A) (A) (A) (A) (A) (A) (A) (A) (A) (A) (A)
                 (A) (A) (A) (A) (A) (A) (A) (A) (A) (A) (A) (A)
                 (A) (A) (A) (A) (A) (A) (A) (A) (A) (A) (A) (A)
                 (A) (A) (A) (A) (A) (A) (A) (A) (A) (A) (A) (A)
                 (A) (A) (A) (A) (A) (A) (A) (A) (A) (A) (A) (A)
                 (A) (A) (A) (A) (A) (A) (A) (A) (A) (A) (A) (A)
                 (A) (A) (A) (A) (A) (A) (A) (A) (A) (A) (A) (A)
                 (A) (A) (A)
 Beta  Orbitals:
       Occupied  (A) (A) (A) (A) (A) (A) (A) (A) (A) (A) (A) (A)
                 (A) (A) (A) (A) (A) (A) (A) (A) (A) (A) (A) (A)
                 (A) (A) (A) (A) (A) (A) (A) (A) (A) (A) (A) (A)
                 (A) (A) (A) (A) (A) (A) (A) (A) (A) (A) (A) (A)
                 (A) (A) (A) (A) (A) (A) (A) (A) (A) (A) (A) (A)
                 (A) (A) (A) (A) (A) (A) (A) (A) (A) (A) (A) (A)
                 (A) (A) (A) (A) (A) (A) (A) (A) (A) (A) (A) (A)
                 (A) (A) (A) (A) (A) (A) (A) (A)
       Virtual   (A) (A) (A) (A) (A) (A) (A) (A) (A) (A) (A) (A)
                 (A) (A) (A) (A) (A) (A) (A) (A) (A) (A) (A) (A)
                 (A) (A) (A) (A) (A) (A) (A) (A) (A) (A) (A) (A)
                 (A) (A) (A) (A) (A) (A) (A) (A) (A) (A) (A) (A)
                 (A) (A) (A) (A) (A) (A) (A) (A) (A) (A) (A) (A)
                 (A) (A) (A) (A) (A) (A) (A) (A) (A) (A) (A) (A)
                 (A) (A) (A) (A) (A) (A) (A) (A) (A) (A) (A) (A)
                 (A) (A) (A) (A) (A) (A) (A) (A) (A) (A) (A) (A)
                 (A) (A) (A) (A) (A) (A) (A) (A) (A) (A) (A) (A)
                 (A) (A) (A) (A) (A) (A) (A) (A) (A) (A) (A) (A)
                 (A) (A) (A) (A) (A) (A) (A) (A) (A) (A) (A) (A)
                 (A) (A) (A) (A) (A) (A) (A) (A) (A) (A) (A) (A)
                 (A) (A) (A) (A) (A) (A) (A) (A) (A) (A) (A) (A)
                 (A) (A) (A) (A) (A) (A) (A) (A) (A) (A) (A) (A)
                 (A) (A) (A) (A) (A) (A) (A) (A) (A) (A) (A) (A)
                 (A) (A) (A) (A) (A) (A) (A) (A) (A) (A) (A) (A)
                 (A) (A) (A) (A) (A) (A) (A) (A) (A) (A) (A) (A)
                 (A) (A) (A) (A) (A) (A) (A) (A) (A) (A) (A) (A)
                 (A) (A) (A) (A) (A) (A) (A) (A) (A) (A) (A) (A)
                 (A) (A) (A) (A) (A) (A) (A) (A) (A) (A) (A) (A)
                 (A) (A) (A) (A) (A) (A) (A) (A) (A) (A) (A) (A)
                 (A) (A) (A) (A) (A) (A) (A) (A) (A) (A) (A) (A)
                 (A) (A) (A) (A) (A) (A) (A) (A) (A) (A) (A) (A)
                 (A) (A) (A) (A) (A) (A) (A) (A) (A) (A) (A) (A)
                 (A) (A) (A) (A) (A) (A) (A) (A) (A) (A) (A) (A)
                 (A) (A) (A) (A) (A) (A) (A) (A) (A) (A) (A) (A)
                 (A) (A) (A) (A) (A) (A) (A) (A) (A) (A) (A) (A)
                 (A) (A) (A) (A) (A) (A) (A) (A) (A) (A) (A) (A)
                 (A) (A) (A) (A) (A) (A) (A) (A) (A) (A) (A) (A)
                 (A) (A) (A) (A) (A) (A) (A) (A) (A) (A) (A) (A)
                 (A) (A) (A) (A) (A) (A) (A) (A) (A) (A) (A) (A)
                 (A) (A) (A) (A) (A) (A) (A) (A) (A) (A) (A) (A)
                 (A) (A) (A) (A) (A) (A) (A) (A) (A) (A) (A) (A)
                 (A) (A) (A) (A) (A) (A) (A) (A) (A) (A) (A) (A)
                 (A) (A) (A) (A) (A) (A) (A) (A) (A) (A) (A) (A)
                 (A) (A) (A) (A) (A) (A) (A) (A) (A) (A) (A) (A)
                 (A) (A) (A) (A) (A) (A) (A) (A) (A) (A) (A) (A)
                 (A) (A) (A) (A) (A) (A) (A) (A) (A) (A) (A) (A)
                 (A) (A) (A) (A) (A) (A) (A) (A) (A) (A) (A) (A)
                 (A) (A) (A) (A) (A) (A) (A) (A) (A) (A) (A) (A)
                 (A) (A) (A) (A) (A) (A) (A) (A) (A) (A) (A) (A)
                 (A) (A) (A) (A) (A) (A) (A) (A) (A) (A) (A) (A)
                 (A) (A) (A) (A) (A) (A) (A) (A) (A) (A) (A) (A)
                 (A) (A) (A) (A) (A) (A) (A) (A) (A) (A) (A) (A)
                 (A) (A) (A) (A) (A) (A) (A) (A) (A) (A) (A) (A)
                 (A) (A) (A) (A) (A) (A) (A) (A) (A) (A) (A) (A)
                 (A) (A) (A) (A) (A) (A) (A) (A) (A) (A) (A) (A)
                 (A) (A) (A) (A) (A) (A) (A) (A) (A) (A) (A) (A)
                 (A) (A) (A) (A) (A) (A) (A) (A) (A) (A) (A) (A)
                 (A) (A) (A) (A) (A) (A) (A) (A) (A) (A) (A) (A)
                 (A) (A) (A) (A) (A) (A) (A) (A) (A) (A) (A) (A)
                 (A) (A) (A) (A) (A) (A) (A) (A) (A) (A) (A) (A)
                 (A) (A) (A) (A) (A) (A) (A) (A) (A) (A) (A) (A)
                 (A) (A) (A) (A) (A) (A) (A) (A) (A) (A) (A) (A)
                 (A) (A) (A) (A) (A) (A) (A) (A) (A) (A) (A) (A)
                 (A) (A) (A)
 The electronic state is 1-A.
 Alpha  occ. eigenvalues --  -77.45033 -77.41999 -19.40222 -19.39781 -19.35562
 Alpha  occ. eigenvalues --  -19.35401 -19.35111 -19.33092 -19.32384 -19.29860
 Alpha  occ. eigenvalues --  -19.27918 -19.27440 -14.53964 -14.53265 -10.52947
 Alpha  occ. eigenvalues --  -10.52469 -10.42017 -10.41237 -10.39529 -10.38132
 Alpha  occ. eigenvalues --   -6.85640  -6.82604  -4.97735  -4.97531  -4.97441
 Alpha  occ. eigenvalues --   -4.94691  -4.94476  -4.94436  -1.65704  -1.28590
 Alpha  occ. eigenvalues --   -1.28141  -1.21711  -1.19890  -1.19415  -1.18687
 Alpha  occ. eigenvalues --   -1.15798  -1.12268  -1.11639  -1.08431  -1.07525
 Alpha  occ. eigenvalues --   -1.06609  -0.96265  -0.95788  -0.95640  -0.90465
 Alpha  occ. eigenvalues --   -0.89624  -0.83035  -0.81539  -0.77013  -0.76162
 Alpha  occ. eigenvalues --   -0.73801  -0.70817  -0.68397  -0.67449  -0.66942
 Alpha  occ. eigenvalues --   -0.66761  -0.66204  -0.65172  -0.64386  -0.63142
 Alpha  occ. eigenvalues --   -0.62416  -0.61394  -0.60360  -0.60018  -0.59174
 Alpha  occ. eigenvalues --   -0.57631  -0.56943  -0.56398  -0.55451  -0.54774
 Alpha  occ. eigenvalues --   -0.54439  -0.53873  -0.53030  -0.52985  -0.52530
 Alpha  occ. eigenvalues --   -0.51822  -0.50263  -0.49777  -0.49330  -0.48657
 Alpha  occ. eigenvalues --   -0.46921  -0.46511  -0.46220  -0.45642  -0.45147
 Alpha  occ. eigenvalues --   -0.44460  -0.44183  -0.42992  -0.42838  -0.41153
 Alpha  occ. eigenvalues --   -0.41056  -0.39865
 Alpha virt. eigenvalues --   -0.14908  -0.14318  -0.13765  -0.13140  -0.11565
 Alpha virt. eigenvalues --   -0.11058  -0.09477  -0.08396  -0.07993  -0.07462
 Alpha virt. eigenvalues --   -0.07317  -0.05695  -0.05382  -0.04673  -0.04255
 Alpha virt. eigenvalues --   -0.03703  -0.03017  -0.02782  -0.02367  -0.01966
 Alpha virt. eigenvalues --   -0.01454  -0.01382  -0.00520  -0.00328  -0.00035
 Alpha virt. eigenvalues --    0.00272   0.01233   0.01729   0.01829   0.02152
 Alpha virt. eigenvalues --    0.02805   0.03571   0.03691   0.04142   0.04325
 Alpha virt. eigenvalues --    0.04547   0.05218   0.05420   0.06047   0.06467
 Alpha virt. eigenvalues --    0.07523   0.07641   0.08078   0.09520   0.09849
 Alpha virt. eigenvalues --    0.10267   0.10590   0.11242   0.12206   0.12346
 Alpha virt. eigenvalues --    0.13370   0.14154   0.14357   0.15069   0.15638
 Alpha virt. eigenvalues --    0.16013   0.17039   0.17621   0.18421   0.18586
 Alpha virt. eigenvalues --    0.19110   0.19448   0.19619   0.20615   0.21005
 Alpha virt. eigenvalues --    0.21943   0.22830   0.23233   0.23808   0.24287
 Alpha virt. eigenvalues --    0.24587   0.24615   0.25264   0.25774   0.25986
 Alpha virt. eigenvalues --    0.26397   0.27406   0.27982   0.28653   0.29036
 Alpha virt. eigenvalues --    0.29411   0.30056   0.30292   0.30504   0.30921
 Alpha virt. eigenvalues --    0.31369   0.31937   0.32785   0.33033   0.33465
 Alpha virt. eigenvalues --    0.33979   0.34142   0.35003   0.35376   0.36114
 Alpha virt. eigenvalues --    0.36559   0.36822   0.37044   0.37433   0.37539
 Alpha virt. eigenvalues --    0.38406   0.38597   0.38936   0.39619   0.40017
 Alpha virt. eigenvalues --    0.40384   0.40992   0.41198   0.41859   0.42070
 Alpha virt. eigenvalues --    0.42573   0.43025   0.43726   0.43827   0.44696
 Alpha virt. eigenvalues --    0.45567   0.46371   0.47032   0.47401   0.48014
 Alpha virt. eigenvalues --    0.48711   0.48819   0.49440   0.50534   0.51318
 Alpha virt. eigenvalues --    0.51851   0.53170   0.53804   0.54507   0.55263
 Alpha virt. eigenvalues --    0.56005   0.56437   0.57361   0.58269   0.59614
 Alpha virt. eigenvalues --    0.60689   0.60747   0.61659   0.62295   0.62461
 Alpha virt. eigenvalues --    0.63892   0.64353   0.64583   0.65075   0.65431
 Alpha virt. eigenvalues --    0.66214   0.66769   0.67628   0.68990   0.69692
 Alpha virt. eigenvalues --    0.70294   0.70578   0.70846   0.72358   0.72706
 Alpha virt. eigenvalues --    0.72951   0.73790   0.74428   0.75447   0.75960
 Alpha virt. eigenvalues --    0.76702   0.77235   0.78789   0.79790   0.81127
 Alpha virt. eigenvalues --    0.82227   0.82354   0.83470   0.83655   0.85125
 Alpha virt. eigenvalues --    0.85338   0.85995   0.87922   0.88526   0.89337
 Alpha virt. eigenvalues --    0.89635   0.90107   0.91020   0.91507   0.92454
 Alpha virt. eigenvalues --    0.93228   0.95059   0.97250   0.97529   0.98148
 Alpha virt. eigenvalues --    0.99146   1.01271   1.01516   1.03125   1.05344
 Alpha virt. eigenvalues --    1.06536   1.07423   1.08561   1.08914   1.12273
 Alpha virt. eigenvalues --    1.12755   1.13466   1.14202   1.15873   1.16415
 Alpha virt. eigenvalues --    1.17329   1.18080   1.19358   1.19842   1.20743
 Alpha virt. eigenvalues --    1.21559   1.21636   1.22189   1.22518   1.23858
 Alpha virt. eigenvalues --    1.24664   1.25250   1.27790   1.28463   1.28841
 Alpha virt. eigenvalues --    1.30150   1.30304   1.31270   1.31489   1.32310
 Alpha virt. eigenvalues --    1.33406   1.34179   1.34621   1.35215   1.35496
 Alpha virt. eigenvalues --    1.36882   1.38471   1.38832   1.39074   1.39898
 Alpha virt. eigenvalues --    1.41208   1.41694   1.41852   1.42764   1.44160
 Alpha virt. eigenvalues --    1.44525   1.45274   1.46103   1.48103   1.48652
 Alpha virt. eigenvalues --    1.49185   1.49577   1.50708   1.51526   1.52323
 Alpha virt. eigenvalues --    1.53321   1.53590   1.54104   1.54626   1.55502
 Alpha virt. eigenvalues --    1.56087   1.56544   1.57089   1.58163   1.58906
 Alpha virt. eigenvalues --    1.61346   1.63387   1.63712   1.64383   1.64957
 Alpha virt. eigenvalues --    1.67036   1.67339   1.68307   1.69746   1.70667
 Alpha virt. eigenvalues --    1.71207   1.71738   1.74057   1.74607   1.76035
 Alpha virt. eigenvalues --    1.76155   1.77258   1.78805   1.79644   1.79899
 Alpha virt. eigenvalues --    1.80266   1.80398   1.81046   1.81851   1.82532
 Alpha virt. eigenvalues --    1.83846   1.84819   1.85204   1.86095   1.86566
 Alpha virt. eigenvalues --    1.86937   1.87599   1.88127   1.88419   1.88647
 Alpha virt. eigenvalues --    1.89589   1.89832   1.90621   1.92202   1.92401
 Alpha virt. eigenvalues --    1.93626   1.94138   1.95171   1.96127   1.97671
 Alpha virt. eigenvalues --    1.98570   1.99131   2.00625   2.01105   2.01582
 Alpha virt. eigenvalues --    2.02702   2.03841   2.04852   2.05872   2.07579
 Alpha virt. eigenvalues --    2.07948   2.08750   2.09510   2.09951   2.11411
 Alpha virt. eigenvalues --    2.11882   2.12573   2.13149   2.13582   2.13872
 Alpha virt. eigenvalues --    2.14287   2.16174   2.17112   2.17766   2.18221
 Alpha virt. eigenvalues --    2.18638   2.19257   2.20408   2.20903   2.22897
 Alpha virt. eigenvalues --    2.24579   2.25960   2.26267   2.26574   2.29058
 Alpha virt. eigenvalues --    2.29963   2.30252   2.31021   2.32200   2.33051
 Alpha virt. eigenvalues --    2.35087   2.36266   2.36856   2.37469   2.37945
 Alpha virt. eigenvalues --    2.39747   2.41050   2.41978   2.43144   2.43936
 Alpha virt. eigenvalues --    2.45691   2.46737   2.49003   2.49523   2.50932
 Alpha virt. eigenvalues --    2.51989   2.53116   2.53188   2.53673   2.55914
 Alpha virt. eigenvalues --    2.57026   2.58256   2.58472   2.59813   2.60451
 Alpha virt. eigenvalues --    2.60676   2.63264   2.63709   2.65219   2.65869
 Alpha virt. eigenvalues --    2.67045   2.68517   2.70684   2.72652   2.73249
 Alpha virt. eigenvalues --    2.73893   2.74357   2.75873   2.76569   2.77958
 Alpha virt. eigenvalues --    2.78543   2.79065   2.81450   2.82355   2.83673
 Alpha virt. eigenvalues --    2.84202   2.84848   2.85207   2.86660   2.87097
 Alpha virt. eigenvalues --    2.87423   2.88462   2.90982   2.92448   2.92827
 Alpha virt. eigenvalues --    2.93998   2.94410   2.94798   2.95595   2.95931
 Alpha virt. eigenvalues --    2.96908   2.97889   2.99359   3.00148   3.01395
 Alpha virt. eigenvalues --    3.03154   3.03755   3.04029   3.05037   3.06910
 Alpha virt. eigenvalues --    3.07349   3.07859   3.08328   3.08954   3.09687
 Alpha virt. eigenvalues --    3.10265   3.11031   3.11716   3.12456   3.14034
 Alpha virt. eigenvalues --    3.14855   3.15744   3.17039   3.19271   3.20527
 Alpha virt. eigenvalues --    3.21546   3.22121   3.23211   3.23726   3.25138
 Alpha virt. eigenvalues --    3.25862   3.26346   3.28565   3.29824   3.31168
 Alpha virt. eigenvalues --    3.31723   3.32242   3.33414   3.34027   3.35932
 Alpha virt. eigenvalues --    3.37282   3.38599   3.39958   3.40445   3.43901
 Alpha virt. eigenvalues --    3.44688   3.46791   3.49942   3.51776   3.52048
 Alpha virt. eigenvalues --    3.53183   3.53629   3.54524   3.55161   3.60670
 Alpha virt. eigenvalues --    3.61308   3.65732   3.66156   3.66962   3.67430
 Alpha virt. eigenvalues --    3.67906   3.69214   3.70136   3.70733   3.80286
 Alpha virt. eigenvalues --    3.81845   3.83271   3.84377   3.88465   3.89229
 Alpha virt. eigenvalues --    3.89611   3.90496   3.91081   3.91845   3.92816
 Alpha virt. eigenvalues --    3.95763   3.98374   3.99797   4.03790   4.06498
 Alpha virt. eigenvalues --    4.09856   4.11809   4.12593   4.19869   4.21670
 Alpha virt. eigenvalues --    4.29530   4.30242   4.31501   4.32111   4.40116
 Alpha virt. eigenvalues --    4.40615   4.54347   4.55396   4.59709   4.60181
 Alpha virt. eigenvalues --    4.71090   4.71436   4.86999   4.88464   4.90568
 Alpha virt. eigenvalues --    4.91081   4.92912   4.93211   4.99275   5.00607
 Alpha virt. eigenvalues --    5.01023   5.01159   5.02454   5.02646   5.03071
 Alpha virt. eigenvalues --    5.03230   5.03537   5.04401   5.05236   5.05566
 Alpha virt. eigenvalues --    5.06672   5.06773   5.07129   5.07517   5.07845
 Alpha virt. eigenvalues --    5.08317   5.08663   5.09254   5.09772   5.10120
 Alpha virt. eigenvalues --    5.11150   5.11609   5.12902   5.13992   5.14473
 Alpha virt. eigenvalues --    5.15203   5.15281   5.17705   5.18992   5.21206
 Alpha virt. eigenvalues --    5.22106   5.24202   5.24798   5.25344   5.25445
 Alpha virt. eigenvalues --    5.25598   5.25837   5.26396   5.27013   5.29466
 Alpha virt. eigenvalues --    5.30496   5.30677   5.31093   5.32852   5.33840
 Alpha virt. eigenvalues --    5.36296   5.36711   5.37304   5.37846   5.39488
 Alpha virt. eigenvalues --    5.42762   5.44831   5.45876   5.46951   5.47302
 Alpha virt. eigenvalues --    5.47463   5.49325   5.51115   5.53866   5.56589
 Alpha virt. eigenvalues --    5.58041   5.59700   5.60774   5.65733   5.66113
 Alpha virt. eigenvalues --    5.77512   5.77824   5.78860   5.79258   6.01130
 Alpha virt. eigenvalues --    6.01364   6.07793   6.08059   6.09388   6.11175
 Alpha virt. eigenvalues --    6.21754   6.22057   6.23460   6.25056   6.25743
 Alpha virt. eigenvalues --    6.28566   6.33967   6.34307   6.35604   6.36651
 Alpha virt. eigenvalues --    6.37508   6.40347   6.40851   6.41422   6.42799
 Alpha virt. eigenvalues --    6.43757   6.47515   6.52391   6.54024   6.56562
 Alpha virt. eigenvalues --    6.56667   6.57069   6.57453   6.58780   6.61212
 Alpha virt. eigenvalues --    6.61507   6.61819   6.65482   6.66116   6.67307
 Alpha virt. eigenvalues --    6.70604   6.71426   6.72618   6.73012   6.73625
 Alpha virt. eigenvalues --    6.74224   6.75216   6.76325   6.78499   6.80117
 Alpha virt. eigenvalues --    6.80487   6.82589   6.89272   6.90692   6.92732
 Alpha virt. eigenvalues --    6.96055   6.97001   6.99589   7.00227   7.03812
 Alpha virt. eigenvalues --    7.04161   7.09428   7.17276   7.17577   7.24818
 Alpha virt. eigenvalues --    7.79687   7.80697   7.96454   8.01192   8.17218
 Alpha virt. eigenvalues --    8.22098  16.84413  16.94354  17.71792  22.27775
 Alpha virt. eigenvalues --   22.30668  22.34251  22.35400  23.14068  23.14458
 Alpha virt. eigenvalues --   32.24197  32.24788  43.50940  43.58729  43.64335
 Alpha virt. eigenvalues --   43.67421  43.68623  43.69101  43.73060  43.73898
 Alpha virt. eigenvalues --   43.76306  43.85040  69.54518
  Beta  occ. eigenvalues --  -77.45033 -77.41999 -19.40222 -19.39781 -19.35562
  Beta  occ. eigenvalues --  -19.35401 -19.35111 -19.33092 -19.32384 -19.29860
  Beta  occ. eigenvalues --  -19.27918 -19.27440 -14.53964 -14.53265 -10.52947
  Beta  occ. eigenvalues --  -10.52469 -10.42017 -10.41237 -10.39529 -10.38132
  Beta  occ. eigenvalues --   -6.85640  -6.82604  -4.97735  -4.97531  -4.97441
  Beta  occ. eigenvalues --   -4.94691  -4.94476  -4.94436  -1.65704  -1.28590
  Beta  occ. eigenvalues --   -1.28141  -1.21711  -1.19890  -1.19415  -1.18687
[...]
 2,0.00057849,0.00196239,0.00006224,0.00011676,-0.00125404,-0.00074763,
 -0.00047922,0.00054088,0.00028188,0.00012488,0.00011176,0.00021962,0.0
 0027322,0.00038126,0.00007824,0.00011023,0.00011326,0.00000371,-0.0188
 1591,-0.00644965,-0.01575596,0.13027209,0.03645097,0.15705499,-0.00010
 278,-0.00002802,-0.00005518,0.00001543,0.00000613,-0.00003601,-0.00002
 289,-0.00003447,0.00006024,0.00002662,0.00002885,0.00001592,0.00000097
 ,-0.00005673,0.00010508,0.00008469,-0.00013883,0.00009319,-0.00042260,
 0.00122824,-0.00078046,-0.00047719,-0.00058157,0.00042049,0.00077425,-
 0.00068744,0.00103872,0.00012732,-0.00019804,0.00010597,0.00088804,0.0
 0013069,-0.00053233,0.00024107,0.00055841,-0.00333933,-0.00000833,-0.0
 0001888,-0.00002019,0.00005334,0.00001254,0.00000626,-0.00000775,-0.00
 000318,0.00000851,-0.00002125,-0.00000236,-0.00000511,0.00007876,0.000
 03071,0.00004395,-0.00000809,0.00001070,0.00006232,0.00023236,-0.00092
 825,0.00041522,-0.00052918,0.00044603,-0.00021551,-0.00012815,-0.00035
 585,0.00047829,-0.00842070,-0.00400045,0.03868690,-0.03437951,0.020669
 41,-0.02373103,-0.00083176,-0.00070326,-0.00908615,0.00032851,0.000800
 53,0.00163304,-0.00086727,-0.00043919,-0.00087065,-0.00163217,0.001148
 74,-0.00078787,0.00062073,0.00037132,-0.00090317,-0.00002345,-0.000001
 27,-0.00009569,-0.00507718,0.00283926,0.00248214,0.00161066,-0.0008454
 8,0.00002351,0.04771919,-0.00008808,0.00000382,-0.00003659,0.00001230,
 0.00000256,-0.00001010,0.00001375,-0.00000386,0.00000639,0.00002257,0.
 00001626,0.00001007,0.00001357,-0.00008093,0.00007961,0.00001204,-0.00
 000517,0.00001151,-0.00006732,0.00005608,0.00005298,0.00018459,0.00000
 149,-0.00017389,0.00007447,-0.00025585,0.00007136,0.00006732,-0.000024
 02,-0.00003055,-0.00035002,-0.00001931,0.00029845,0.00006442,0.0007705
 9,-0.00217216,-0.00001066,-0.00000687,-0.00001458,0.00001300,0.0000029
 4,-0.00000176,-0.00000187,-0.00000236,0.00000324,-0.00000740,-0.000000
 48,0.00000130,0.00000166,-0.00003289,-0.00001134,0.00000037,0.00000174
 ,0.00000708,0.00232495,0.00215982,-0.00160244,-0.00007938,-0.00082716,
 0.00013595,-0.00118823,-0.00130174,0.00082973,-0.00247126,0.00091509,-
 0.00957621,0.01612629,-0.04347011,0.02969193,0.00356351,-0.01322497,0.
 03825123,0.00001671,-0.00498431,-0.00319353,-0.00072107,0.00101840,-0.
 00055450,0.00145808,-0.00057242,0.00133097,-0.00067154,0.00025459,0.00
 096501,0.00010994,-0.00005560,0.00001390,0.00059073,-0.00042910,-0.000
 17666,0.00109546,0.00036439,0.00036314,-0.01966355,0.05757161,-0.00020
 682,-0.00002204,-0.00003813,-0.00001217,-0.00002564,0.00000383,0.00008
 838,-0.00004639,0.00003365,0.00009941,0.00006721,-0.00000546,0.0001990
 4,0.00004945,0.00004879,0.00002258,0.00000246,0.00001919,-0.00029912,0
 .00040949,-0.00012770,-0.00005745,-0.00018016,0.00007043,0.00033266,-0
 .00029657,0.00005012,0.00012686,-0.00008507,-0.00004504,0.00016037,0.0
 0004945,-0.00012362,-0.00096724,-0.00007051,-0.00184398,-0.00001435,-0
 .00002110,0.00000815,-0.00000194,0.00000510,-0.00001103,0.00000599,0.0
 0000247,0.00000378,-0.00000632,-0.00000028,0.00000219,0.00001319,0.000
 00901,0.00000391,0.00000687,-0.00000707,0.00001437,0.00153939,0.000348
 27,-0.00110872,-0.00035011,-0.00001279,-0.00001702,-0.00031754,-0.0002
 3463,0.00024334,-0.00361800,-0.00031953,-0.01188863,0.01181275,0.05784
 972,-0.41470983,-0.00302595,-0.00123525,-0.00538084,-0.00055056,0.0005
 8042,0.00104711,-0.00009005,0.00011155,0.00004721,-0.00017894,0.000157
 27,-0.00024090,0.00005543,-0.00008999,0.00014097,0.00008663,-0.0000663
 5,0.00007725,0.00122088,-0.00134459,0.00076955,-0.00083162,0.00036878,
 0.00236572,-0.00584935,-0.05459234,0.42909501,0.00008839,0.00009472,-0
 .00000188,0.00004085,0.00002846,-0.00001194,-0.00004986,-0.00002865,-0
 .00000070,-0.00005869,-0.00007610,0.00001373,-0.00005814,-0.00005075,-
 0.00001332,-0.00001856,0.00008935,-0.00001515,0.00098374,-0.00079854,0
 .00040877,-0.00006819,0.00031220,-0.00006615,-0.00092513,-0.00009032,-
 0.00029108,-0.00027264,0.00015518,0.00007620,0.00001752,-0.00026937,0.
 00006367,-0.00001151,0.00085564,0.00000928,0.00000802,0.00002003,-0.00
 000517,0.00000863,0.00000216,0.00000909,-0.00000732,-0.00000879,-0.000
 00406,0.00001187,0.00000069,0.00000330,0.00001591,-0.00002115,0.000004
 20,-0.00001544,-0.00002076,-0.00003203,0.00002290,0.00011319,0.0000228
 6,0.00001743,-0.00008413,-0.00004090,-0.00023014,0.00010478,0.00021298
 ,0.00357573,0.00055789,0.00113695,0.01004273,0.00859075,0.00292792,-0.
 19456862,-0.11564615,-0.05192720,-0.00550319,-0.00504723,0.00301061,0.
 00035111,0.00013781,-0.00094278,0.00040319,0.00163738,-0.00080771,0.00
 110028,0.00065292,0.00075954,-0.00001439,0.00001603,-0.00001220,0.0000
 3171,-0.00005769,-0.00001982,0.00034782,-0.00111138,-0.00097975,0.0000
 9632,-0.00073788,0.00058098,0.20137231,0.00022839,-0.00007714,0.000073
 54,-0.00002605,0.00000393,0.00001108,-0.00006444,0.00011381,-0.0000486
 6,-0.00009074,-0.00001958,-0.00001389,-0.00025157,-0.00003129,-0.00006
 233,-0.00001029,-0.00006422,-0.00002230,-0.00035707,-0.00019575,-0.000
 07967,0.00025803,0.00014064,-0.00003511,0.00026351,0.00050051,0.000050
 78,0.00008319,0.00002556,-0.00002691,-0.00031780,0.00008493,0.00008662
 ,0.00125630,-0.00066830,0.00099789,0.00001357,0.00001207,0.00000015,-0
 .00001078,-0.00000752,0.00001041,-0.00000045,0.00000580,-0.00000324,0.
 00000100,-0.00000140,-0.00000608,-0.00002398,0.00000997,-0.00001303,-0
 .00000024,0.00002650,0.00000679,-0.00075928,-0.00039350,-0.00030122,0.
 00042381,-0.00023315,-0.00004790,0.00084555,-0.00010439,-0.00034459,-0
 .00375779,0.00229787,0.00156273,-0.01797315,-0.03434689,-0.00481431,-0
 .11119361,-0.13355211,-0.03832785,0.00032198,0.00207017,-0.00311924,0.
 00051529,0.00186460,0.00153582,-0.00017559,-0.00100793,-0.00009183,0.0
 0035664,0.00002489,0.00076229,-0.00002932,0.00003795,0.00006334,0.0002
 7393,-0.00013190,-0.00039746,0.00076104,-0.00032044,0.00012184,-0.0000
 4057,0.00058086,-0.00102829,0.12445193,0.15812734,0.00004284,0.0000482
 1,-0.00001577,0.00002725,0.00004778,-0.00002603,-0.00010306,-0.0000275
 6,0.00004838,-0.00003417,-0.00004651,0.00001118,-0.00004433,-0.0000460
 1,0.00000291,0.00002284,-0.00003915,0.00004370,-0.00009437,0.00010678,
 -0.00043147,0.00000124,-0.00003133,0.00012517,0.00033432,0.00012068,0.
 00036938,0.00000174,-0.00000928,0.00005176,0.00021509,-0.00003196,-0.0
 0011917,-0.00013623,0.00081604,-0.00099293,0.00000263,0.00001120,-0.00
 000507,0.00009117,0.00002119,0.00002763,-0.00001434,-0.00001096,0.0000
 0406,-0.00000944,-0.00000796,0.00000203,0.00009706,-0.00004135,0.00001
 847,-0.00002497,-0.00000643,0.00001861,-0.00009334,-0.00042058,-0.0003
 6229,-0.00003750,0.00016552,0.00004665,0.00024145,0.00031462,0.0003149
 6,0.00061560,-0.00064504,-0.00016414,0.00580959,0.00765171,0.00355464,
 -0.05806314,-0.04479494,-0.06304876,-0.01863157,-0.01640087,-0.0010356
 7,-0.00183388,-0.00338805,-0.00677627,0.00059533,0.00349295,-0.0011544
 2,0.00178159,0.00103657,0.00206361,0.00000131,-0.00001895,-0.00000597,
 -0.00011232,-0.00045089,-0.00027677,-0.00018826,-0.00028460,-0.0001303
 0,0.00103726,0.00044258,0.00057566,0.05490031,0.04129759,0.06250138,-0
 .00004681,-0.00007116,0.00000475,-0.00004245,-0.00000641,-0.00000108,-
 0.00002732,0.00003568,0.00008554,0.00003517,0.00005075,-0.00000904,0.0
 0002328,0.00003805,0.00000237,0.00006956,-0.00004380,0.00002747,-0.001
 56683,-0.00046981,-0.00058795,-0.00037131,0.00010588,0.00025119,-0.000
 73951,0.00018547,0.00100505,0.00020071,0.00005104,-0.00002937,0.000485
 65,0.00050122,-0.00086279,0.00027220,-0.00004619,-0.00021523,-0.000004
 67,-0.00001293,0.00000288,0.00004143,0.00001660,0.00000778,0.00000228,
 0.00000098,0.00000089,-0.00000957,-0.00000624,-0.00000162,0.00003038,0
 .00001779,0.00000200,-0.00000138,0.00001731,0.00004159,-0.00042284,-0.
 00042769,-0.00021297,-0.00010089,0.00027739,0.00009766,0.00018583,0.00
 019006,0.00007335,0.00108353,0.00153859,-0.00015997,-0.00454707,0.0034
 0074,0.00285539,-0.21346131,0.04723579,0.11709395,0.00457488,-0.001802
 26,-0.00147031,-0.00166243,-0.00070371,-0.00013196,0.00001699,-0.00031
 773,-0.00028908,0.00118053,0.00145839,-0.00131921,-0.00001091,-0.00001
 725,0.00000620,0.00009163,0.00004050,-0.00027004,0.00007345,-0.0001881
 9,-0.00001069,0.00001928,0.00024615,0.00004127,-0.01673858,0.00506862,
 0.01361862,0.23134934,-0.00004081,-0.00009987,0.00000188,-0.00003442,-
 0.00002137,0.00000035,0.00003337,0.00001339,-0.00002420,0.00003473,0.0
 0006237,-0.00000978,0.00000586,0.00005708,0.00002075,0.00005427,-0.000
 23188,0.00008778,-0.00098545,0.00214759,-0.00058143,-0.00002589,-0.000
 90020,-0.00015153,0.00111291,-0.00028420,0.00094273,0.00026929,-0.0003
 1412,-0.00004619,0.00011237,0.00024018,0.00068574,0.00058875,-0.001058
 96,-0.00055266,-0.00000204,-0.00001846,-0.00000009,0.00001131,-0.00001
 425,-0.00000192,0.00000368,0.00000862,0.00000588,-0.00001737,0.0000031
 7,-0.00000320,0.00000117,0.00001827,0.00001808,0.00000708,0.00002852,0
 .00006307,0.00189839,0.00107797,0.00012826,0.00017877,-0.00095091,-0.0
 0032277,-0.00059389,-0.00034150,-0.00006617,0.00023717,-0.00560220,0.0
 0162100,0.02847034,-0.01419256,-0.01931005,0.04111653,-0.05654126,-0.0
 2849547,-0.00355143,0.00046080,-0.00088532,0.00012038,0.00045335,0.000
 14399,0.00058317,-0.00091317,0.00037347,-0.00017771,-0.00070749,0.0022
 9454,0.00009249,-0.00005951,-0.00000839,-0.00032826,-0.00016151,0.0000
 1326,0.00037791,-0.00034517,-0.00011648,0.00050631,0.00148798,-0.00034
 913,-0.01377746,0.00511079,0.01086208,-0.05631203,0.07129636,-0.000004
 94,-0.00014638,0.00002281,-0.00006560,0.00000823,0.00000581,-0.0000697
 4,0.00009642,0.00007727,0.00003221,0.00007887,-0.00001783,-0.00002349,
 0.00007854,-0.00000491,0.00001710,-0.00010528,-0.00002049,-0.00195842,
 0.00000423,-0.00070250,0.00049679,0.00010483,0.00010324,0.00168095,0.0
 0066018,0.00021973,0.00047040,-0.00007699,-0.00011830,-0.00082215,0.00
 049509,-0.00063892,0.00056201,-0.00075795,-0.00052121,-0.00000228,-0.0
 0001953,0.00000303,0.00007151,0.00001969,0.00001481,0.00000037,0.00000
 517,0.00000680,-0.00002317,-0.00001486,-0.00000642,0.00002947,-0.00002
 912,-0.00003364,-0.00000169,0.00003225,0.00004551,-0.00038432,0.000012
 24,0.00029003,-0.00008339,0.00020153,0.00004215,-0.00004001,-0.0000060
 1,-0.00005151,-0.00071619,0.00206316,0.00039575,-0.00805612,0.00506589
 ,0.00428584,0.12895259,-0.03810788,-0.13126362,0.02239775,-0.00613158,
 -0.01091354,-0.00375824,-0.00079459,-0.00094834,-0.00108537,-0.0005033
 0,0.00352662,0.00060820,0.00326985,-0.00477356,-0.00002334,0.00005591,
 -0.00001474,-0.00009233,0.00002046,0.00006681,-0.00000304,-0.00021791,
 0.00005395,-0.00035600,-0.00045421,0.00090471,-0.00867680,0.00222265,0
 .00521991,-0.12928872,0.03345969,0.13556834,0.00020130,0.00059506,-0.0
 0017556,0.00015652,-0.00027414,-0.00010857,-0.00025912,-0.00007078,-0.
 00016854,-0.00022294,-0.00032942,0.00008778,-0.00006699,-0.00020062,0.
 00003307,0.00009478,-0.00074700,0.00009746,-0.02073843,0.02884434,0.01
 288047,0.00665559,0.00054851,-0.00397601,-0.00407227,-0.00034921,0.000
 35528,-0.07940269,0.13994819,0.05256991,-0.00331715,-0.00058076,0.0019
 0789,-0.00018790,0.00033014,-0.00009021,0.00003534,0.00005821,-0.00001
 770,0.00001458,-0.00006321,-0.00000317,0.00003659,-0.00007661,-0.00010
 006,0.00019184,0.00040469,0.00034503,0.00011337,-0.00001038,0.00012008
 ,0.00003907,-0.00003851,0.00014908,-0.00016296,0.00015678,0.00003592,0
 .00013731,-0.00011264,-0.00003321,0.00009855,-0.00008650,-0.00000446,-
 0.00010174,-0.00002201,0.00004451,0.00010651,-0.00012702,0.00004054,-0
 .00001855,0.00001185,-0.00002197,-0.00118394,0.00142797,0.00009638,0.0
 0010452,-0.00053244,-0.00005189,0.00244375,-0.00067927,-0.00106684,0.0
 0060333,-0.00014153,-0.00020206,-0.00002506,0.00003230,0.00000502,-0.0
 0001901,0.00001683,-0.00001281,0.00001649,-0.00000340,0.00000053,0.000
 00600,-0.00000539,-0.00000016,0.00001311,-0.00002088,0.00000754,-0.000
 06847,0.00003803,-0.00005789,0.09891549,-0.00001009,-0.00029380,0.0000
 6514,-0.00024823,0.00000206,0.00005716,-0.00002048,0.00012505,0.000078
 53,0.00007092,0.00019214,-0.00001696,-0.00005062,0.00014833,-0.0000260
 9,-0.00230410,-0.00059342,0.00180192,0.00086937,0.00340830,0.00098041,
 -0.00306074,-0.00481149,0.00139858,-0.00336189,0.00188209,-0.00018485,
 0.17536996,-0.42517415,-0.12902533,0.00015912,-0.00033121,-0.00024321,
 0.00065231,-0.00023649,-0.00011316,-0.00000923,-0.00005719,-0.00000634
 ,0.00008884,0.00008798,-0.00000097,0.00004063,-0.00001120,-0.00003788,
 0.00010430,-0.00017845,-0.00009745,0.00003407,0.00033654,0.00069560,-0
 .00005867,0.00012318,-0.00029445,0.00022370,0.00004117,0.00000792,-0.0
 0012860,0.00004237,0.00001742,-0.00020573,-0.00002624,-0.00002853,0.00
 003573,-0.00003687,-0.00001573,-0.00010707,-0.00007661,0.00000709,-0.0
 0001019,0.00000006,-0.00002161,0.00029600,0.00056178,0.00005241,-0.000
 30845,-0.00031370,-0.00000195,-0.00011521,-0.00020910,0.00001740,-0.00
 013526,-0.00013022,0.00005966,0.00002393,-0.00001746,-0.00000558,0.000
 00662,0.00000609,0.00000053,-0.00001462,0.00000527,-0.00000244,0.00003
 831,0.00001731,0.00001636,-0.00003772,-0.00000251,-0.00000599,0.000026
 22,0.00005436,0.00001870,-0.16786176,0.42542110,-0.00012399,-0.0003112
 5,0.00010209,-0.00014064,-0.00004379,0.00020368,-0.00026823,0.00025074
 ,-0.00007450,0.00010467,0.00017141,-0.00006335,0.00000376,0.00015881,-
 0.00005028,0.00413537,0.00148349,-0.00116995,0.01085242,-0.01174485,-0
 .00693159,-0.00423012,-0.00105244,0.00064697,-0.00477479,0.00154160,0.
 00051934,0.05703651,-0.11450737,-0.03541255,0.00123973,0.00024345,-0.0
 0139170,0.00036343,-0.00035221,-0.00004548,-0.00002220,-0.00004164,0.0
 0002960,-0.00003945,-0.00004266,-0.00001277,0.00002910,-0.00004155,-0.
 00004563,0.00004999,-0.00019449,-0.00012511,-0.00023728,-0.00040386,-0
 .00102975,-0.00020724,-0.00006537,-0.00031883,0.00015918,-0.00002265,0
 .00000690,-0.00010389,0.00005235,0.00001029,-0.00014294,0.00001940,-0.
 00003539,0.00004153,-0.00000966,-0.00002627,-0.00009575,0.00001044,-0.
 00004135,-0.00004086,0.00000368,-0.00003208,0.00069479,-0.00047524,0.0
 0008364,-0.00017723,0.00010609,0.00005477,-0.00108935,0.00028233,0.000
 42415,-0.00029702,0.00004542,0.00004798,0.00001765,-0.00001967,0.00000
 438,0.00001331,-0.00000840,0.00000581,-0.00001698,0.00000298,0.0000035
 9,-0.00001506,0.00002149,0.00002505,-0.00004223,0.00001010,0.00000275,
 0.00002425,0.00003317,0.00008986,-0.06277015,0.12486441,0.04456937,0.0
 0000251,-0.00017744,0.00004588,-0.00010423,0.00000931,0.00002448,-0.00
 002966,0.00015638,0.00002879,0.00004156,0.00011077,-0.00002364,-0.0000
 3014,0.00008888,-0.00002559,0.00000778,-0.00004201,-0.00004829,-0.0005
 2416,-0.00169778,0.00030407,0.00199089,0.00109099,-0.00098919,-0.00017
 277,0.00054476,-0.00010732,0.00036666,0.00026613,-0.00015300,-0.002781
 42,-0.00012688,0.00159773,0.00015542,-0.00016576,-0.00014210,-0.000005
 13,-0.00002611,0.00000243,0.00003253,-0.00000182,0.00001441,0.00000820
 ,0.00000445,0.00000063,-0.00000830,-0.00001787,-0.00000811,-0.00004173
 ,-0.00012193,-0.00008582,-0.00000575,0.00003366,0.00000371,0.00026075,
 -0.00045525,-0.00023514,-0.00024085,0.00018457,0.00009461,-0.00005518,
 0.00013446,0.00005377,-0.00009334,0.00036144,0.00000199,-0.00024913,-0
 .00006047,-0.00013101,-0.00069484,0.00061567,0.00075155,-0.00557172,-0
 .03223131,0.01223149,-0.00522274,-0.00283652,0.00111279,0.00430383,0.0
 0360092,-0.00395727,-0.02010780,0.00873233,0.00689203,0.00003504,-0.00
 002525,-0.00001541,0.00036194,-0.00025384,0.00027712,0.00000687,0.0000
 9177,-0.00013730,0.00003672,0.00005175,-0.00001499,-0.00000915,-0.0000
 1916,-0.00002385,0.00008620,-0.00000751,0.00027391,-0.00013683,0.00000
 865,0.00006970,0.02838799,-0.00020348,-0.00009933,-0.00001368,-0.00005
 931,-0.00004358,0.00002056,0.00012389,0.00003090,0.00001780,0.00011504
 ,0.00011714,-0.00001511,0.00017031,0.00006986,0.00003225,0.00000307,0.
 00000950,-0.00001071,-0.00056473,-0.00031961,0.00000796,0.00110021,0.0
 0034221,-0.00052348,0.00024538,0.00003358,0.00000446,0.00031296,0.0000
 3706,-0.00010307,-0.00149325,0.00003219,0.00087245,-0.00041842,-0.0004
 4017,0.00007499,-0.00001799,-0.00003166,0.00000636,-0.00004414,-0.0000
 0011,-0.00001847,0.00001369,0.00001150,0.00000397,-0.00000792,-0.00000
 280,-0.00000530,-0.00008460,-0.00000866,-0.00003550,0.00002653,0.00001
 637,0.00000851,0.00017078,-0.00038833,-0.00011270,-0.00019224,0.000198
 66,0.00004493,-0.00001858,0.00018572,0.00003253,0.00020521,0.00024268,
 -0.00018830,-0.00014329,0.00007544,-0.00009776,0.00183897,0.00043438,-
 0.00179337,-0.00404557,-0.00906009,0.00337305,0.00035674,0.00215002,0.
 00043361,0.00569552,-0.00272381,-0.00245922,-0.02513013,-0.48665614,0.
 14138189,0.00003689,-0.00005218,0.00000088,0.00006840,-0.00035455,0.00
 023887,-0.00002690,-0.00000593,0.00002137,-0.00009878,0.00007162,0.000
 00072,0.00004293,0.00011979,0.00027291,-0.00007782,0.00023775,-0.00060
 800,-0.00007941,0.00004496,0.00003576,0.02218004,0.49572561,0.00015538
 ,0.00007675,0.00002634,0.00004521,0.00002433,-0.00002134,-0.00011323,-
 0.00005959,-0.00004981,-0.00008808,-0.00009079,0.00000245,-0.00013544,
 -0.00006484,-0.00004868,-0.00004435,-0.00002684,-0.00002380,0.00055785
 ,0.00072526,0.00006023,-0.00108971,-0.00053702,0.00048928,-0.00015885,
 -0.00015269,0.00003858,-0.00025855,-0.00011735,0.00003798,0.00146591,0
 .00003508,-0.00093176,0.00022266,0.00039672,-0.00004323,0.00001048,0.0
 0002563,0.00000456,0.00000091,-0.00002769,0.00004003,-0.00001724,-0.00
 000995,0.00000194,0.00000944,0.00001017,0.00000467,0.00006512,0.000017
 37,0.00011735,-0.00003892,-0.00002738,0.00000126,-0.00022371,0.0002499
 2,0.00008133,0.00015973,-0.00013741,-0.00007129,0.00007004,-0.00014663
 ,-0.00004126,-0.00018907,0.00000005,0.00036428,-0.00015019,-0.00047324
 ,-0.00000207,0.00380517,-0.00010940,-0.00165529,0.00607060,0.01713296,
 -0.00707465,-0.00285805,-0.00295117,0.00092769,-0.00469420,-0.00088061
 ,0.00009557,0.01572596,0.12753540,-0.03934488,-0.00003377,0.00003252,0
 .00003007,-0.00001322,0.00025777,-0.00026437,0.00001004,0.00005221,-0.
 00006259,-0.00003792,0.00001295,-0.00000908,-0.00024954,-0.00002968,-0
 .00045778,-0.00038216,0.00016906,-0.00091343,0.00008478,-0.00001070,-0
 .00002364,-0.01768306,-0.14090115,0.04871533\\-0.00003411,0.00000113,0
 .00001761,0.00002685,-0.00000552,-0.00002672,-0.00001778,-0.00001931,0
 .00000449,0.00000964,0.00000127,-0.00000159,0.00000527,-0.00000557,-0.
 00000484,0.00002190,-0.00001138,0.00000067,-0.00000137,0.00002614,0.00
 002166,0.00003420,-0.00002952,-0.00000623,-0.00001387,0.00000638,-0.00
 001190,-0.00000839,0.00000826,-0.00002988,-0.00002924,0.00000333,0.000
 00178,0.00001832,0.00004109,0.00000557,-0.00000453,0.00000181,-0.00000
 183,0.00000985,0.00000048,-0.00000104,-0.00000618,0.00000957,-0.000002
 56,-0.00000713,-0.00000416,-0.00000151,-0.00000548,-0.00000663,-0.0000
 1010,0.00000031,0.00000811,-0.00000660,0.00002222,0.00000107,0.0000012
 0,-0.00000853,-0.00000692,0.00001945,-0.00000271,-0.00000117,-0.000004
 69,-0.00001716,-0.00001605,0.00002023,0.00001093,-0.00003225,0.0000129
 1,-0.00001636,-0.00001689,-0.00000224,0.00002754,0.00000332,-0.0000421
 6,-0.00000937,0.00001765,0.00000811,0.00000763,-0.00000221,-0.00000112
 ,-0.00002796,0.00000334,0.00001943,0.00000199,0.00000052,0.00000735,0.
 00000390,-0.00000273,-0.00000108,0.00000214,0.00001248,0.00000035,-0.0
 0000197,0.00001268,0.00000549,-0.00000187,0.00000933,0.00000361,0.0000
 0506,0.00000176,0.00000244,-0.00000167,-0.00000303,0.00000663,0.000007
 96,-0.00000639,-0.00000289\\\@
 The archive entry for this job was punched.


 ACCORDING TO HEN3RY, LIFE IS MUCH LIKE A SEWER........
 YOU GET OUT OF IT JUST WHAT YOU PUT INTO IT...........
                         TOM LEHRER - (THE 3 IS SILENT)
 Job cpu time:       2 days  2 hours 39 minutes 16.6 seconds.
 Elapsed time:       0 days  1 hours  4 minutes 45.6 seconds.
 File lengths (MBytes):  RWF=   3250 Int=      0 D2E=      0 Chk=     64 Scr=      1
 Normal termination of Gaussian 16 at Mon Jul 29 17:58:52 2024.
