 Entering Gaussian System, Link 0=g16
 Initial command:
 /apps/gaussian/g16c01/g16/l1.exe "/jobfs/120823036.gadi-pbs/Gau-1724964.inp" -scrdir="/jobfs/120823036.gadi-pbs/"
 Entering Link 1 = /apps/gaussian/g16c01/g16/l1.exe PID=   1724965.
  
 Copyright (c) 1988-2019, Gaussian, Inc.  All Rights Reserved.
  
 This is part of the Gaussian(R) 16 program.  It is based on
 the Gaussian(R) 09 system (copyright 2009, Gaussian, Inc.),
 the Gaussian(R) 03 system (copyright 2003, Gaussian, Inc.),
 the Gaussian(R) 98 system (copyright 1998, Gaussian, Inc.),
 the Gaussian(R) 94 system (copyright 1995, Gaussian, Inc.),
 the Gaussian 92(TM) system (copyright 1992, Gaussian, Inc.),
 the Gaussian 90(TM) system (copyright 1990, Gaussian, Inc.),
 the Gaussian 88(TM) system (copyright 1988, Gaussian, Inc.),
 the Gaussian 86(TM) system (copyright 1986, Carnegie Mellon
 University), and the Gaussian 82(TM) system (copyright 1983,
 Carnegie Mellon University). Gaussian is a federally registered
 trademark of Gaussian, Inc.
  
 This software contains proprietary and confidential information,
 including trade secrets, belonging to Gaussian, Inc.
  
 This software is provided under written license and may be
 used, copied, transmitted, or stored only in accord with that
 written license.
  
 The following legend is applicable only to US Government
 contracts under FAR:
  
                    RESTRICTED RIGHTS LEGEND
  
 Use, reproduction and disclosure by the US Government is
 subject to restrictions as set forth in subparagraphs (a)
 and (c) of the Commercial Computer Software - Restricted
 Rights clause in FAR 52.227-19.
  
 Gaussian, Inc.
 340 Quinnipiac St., Bldg. 40, Wallingford CT 06492
  
  
 ---------------------------------------------------------------
 Warning -- This program may not be used in any manner that
 competes with the business of Gaussian, Inc. or will provide
 assistance to any competitor of Gaussian, Inc.  The licensee
 of this program is prohibited from giving any competitor of
 Gaussian, Inc. access to this program.  By using this program,
 the user acknowledges that Gaussian, Inc. is engaged in the
 business of creating and licensing software in the field of
 computational chemistry and represents and warrants to the
 licensee that it is not a competitor of Gaussian, Inc. and that
 it will not use this program in any manner prohibited above.
 ---------------------------------------------------------------
  

 Cite this work as:
 Gaussian 16, Revision C.01,
 M. J. Frisch, G. W. Trucks, H. B. Schlegel, G. E. Scuseria, 
 M. A. Robb, J. R. Cheeseman, G. Scalmani, V. Barone, 
 G. A. Petersson, H. Nakatsuji, X. Li, M. Caricato, A. V. Marenich, 
 J. Bloino, B. G. Janesko, R. Gomperts, B. Mennucci, H. P. Hratchian, 
 J. V. Ortiz, A. F. Izmaylov, J. L. Sonnenberg, D. Williams-Young, 
 F. Ding, F. Lipparini, F. Egidi, J. Goings, B. Peng, A. Petrone, 
 T. Henderson, D. Ranasinghe, V. G. Zakrzewski, J. Gao, N. Rega, 
 G. Zheng, W. Liang, M. Hada, M. Ehara, K. Toyota, R. Fukuda, 
 J. Hasegawa, M. Ishida, T. Nakajima, Y. Honda, O. Kitao, H. Nakai, 
 T. Vreven, K. Throssell, J. A. Montgomery, Jr., J. E. Peralta, 
 F. Ogliaro, M. J. Bearpark, J. J. Heyd, E. N. Brothers, K. N. Kudin, 
 V. N. Staroverov, T. A. Keith, R. Kobayashi, J. Normand, 
 K. Raghavachari, A. P. Rendell, J. C. Burant, S. S. Iyengar, 
 J. Tomasi, M. Cossi, J. M. Millam, M. Klene, C. Adamo, R. Cammi, 
 J. W. Ochterski, R. L. Martin, K. Morokuma, O. Farkas, 
 J. B. Foresman, and D. J. Fox, Gaussian, Inc., Wallingford CT, 2019.
 
 ******************************************
 Gaussian 16:  ES64L-G16RevC.01  3-Jul-2019
                15-Jul-2024 
 ******************************************
 %mem=60gb
 %nprocs=48
 Will use up to   48 processors via shared memory.
 %RWF=/scratch/gy60/or4187/rwf/gasphase_globalmin_zndimer.rwf
 %NoSave
 %Chk=gasphase_globalmin_zndimer.chk
 ----------------------------------------------------------------------
 #UM06/Def2TZVP OPT Freq=Noraman INT(grid=ultrafine) EmpiricalDispersio
 n=GD3 SCF=XQC Pop=NPA
 ----------------------------------------------------------------------
 1/18=20,19=15,26=4,38=1/1,3;
 2/9=110,12=2,17=6,18=5,40=1/2;
 3/5=44,7=101,11=2,25=1,30=1,71=1,74=-54,75=-5,116=2,124=31/1,2,3;
 4//1;
 5/5=2,8=3,13=1,38=5/2,8;
 6/7=2,8=2,9=2,10=2,28=1,40=-1/1,7;
 7//1,2,3,16;
 1/18=20,19=15,26=4/3(2);
 2/9=110/2;
 99//99;
 2/9=110/2;
 3/5=44,7=101,11=2,25=1,30=1,71=1,74=-54,75=-5,116=2,124=31/1,2,3;
 4/5=5,16=3,69=1/1;
 5/5=2,8=3,13=1,38=5/2,8;
 7//1,2,3,16;
 1/18=20,19=15,26=4/3(-5);
 2/9=110/2;
 6/7=2,8=2,9=2,10=2,19=2,28=1,40=-1/1,7;
 99/9=1/99;
 ----------------------------------
 gasphase_globalmin_zndimer.optfreq
 ----------------------------------
 Symbolic Z-matrix:
 Charge =  1 Multiplicity = 1
 C                    -2.35156  -2.2781    0.27559 
 C                    -2.77375  -1.39695  -0.88705 
 N                    -1.64491  -0.59919  -1.39486 
 O                    -3.32654  -3.0802    0.67288 
 O                    -1.24352  -2.25568   0.79939 
 C                    -1.93261   0.84805  -1.55589 
 P                    -1.88927   1.66776   0.09519 
 O                    -1.34877   3.13151  -0.01985 
 O                    -1.14322   0.7481    1.04908 
 O                    -3.45403   1.81893   0.43546 
 H                    -0.30279   3.21282   0.00757 
 Zn                    0.03376  -0.67682   0.03206 
 H                    -3.02915  -3.61407   1.43668 
 H                    -1.32702  -0.97031  -2.28851 
 H                    -3.21641  -2.03081  -1.66288 
 H                    -3.57603  -0.74556  -0.52254 
 H                    -1.12166   1.2835   -2.14317 
 H                    -2.88767   1.03911  -2.05728 
 C                     2.4188   -2.23953  -0.26627 
 O                     3.40571  -3.0188   -0.67934 
 O                     1.28188  -2.2957   -0.72419 
 C                     2.86409  -1.27177   0.81335 
 N                     1.71953  -0.54854   1.39877 
 C                     1.94462   0.91699   1.54208 
 P                     1.79629   1.75035  -0.11077 
 O                     1.06344   0.73169  -1.00496 
 O                     1.18802   3.13202   0.03058 
 O                     3.34167   1.85424  -0.60135 
 H                     3.09232  -3.59861  -1.40194 
 H                     3.55533  -0.56621   0.33827 
 H                     3.44143  -1.81891   1.56605 
 H                     1.49722  -0.94071   2.31263 
 H                     2.90837   1.14432   2.01046 
 H                     1.14235   1.31283   2.16773 
 H                    -3.67177   2.51571   1.08023 
 H                     3.5858    2.74992  -0.89252 
 

 GradGradGradGradGradGradGradGradGradGradGradGradGradGradGradGradGradGrad
 Berny optimization.
 Initialization pass.
                           ----------------------------
                           !    Initial Parameters    !
                           ! (Angstroms and Degrees)  !
 --------------------------                            --------------------------
 ! Name  Definition              Value          Derivative Info.                !
 --------------------------------------------------------------------------------
 ! R1    R(1,2)                  1.5187         estimate D2E/DX2                !
 ! R2    R(1,4)                  1.3236         estimate D2E/DX2                !
 ! R3    R(1,5)                  1.2258         estimate D2E/DX2                !
 ! R4    R(2,3)                  1.4726         estimate D2E/DX2                !
 ! R5    R(2,15)                 1.0953         estimate D2E/DX2                !
 ! R6    R(2,16)                 1.0958         estimate D2E/DX2                !
 ! R7    R(3,6)                  1.4843         estimate D2E/DX2                !
 ! R8    R(3,12)                 2.2045         estimate D2E/DX2                !
 ! R9    R(3,14)                 1.0185         estimate D2E/DX2                !
 ! R10   R(4,13)                 0.9782         estimate D2E/DX2                !
 ! R11   R(5,12)                 2.171          estimate D2E/DX2                !
 ! R12   R(6,7)                  1.8439         estimate D2E/DX2                !
 ! R13   R(6,17)                 1.0919         estimate D2E/DX2                !
 ! R14   R(6,18)                 1.0955         estimate D2E/DX2                !
 ! R15   R(7,8)                  1.5646         estimate D2E/DX2                !
 ! R16   R(7,9)                  1.5206         estimate D2E/DX2                !
 ! R17   R(7,10)                 1.6084         estimate D2E/DX2                !
 ! R18   R(8,11)                 1.0495         estimate D2E/DX2                !
 ! R19   R(9,12)                 2.1095         estimate D2E/DX2                !
 ! R20   R(10,35)                0.974          estimate D2E/DX2                !
 ! R21   R(12,21)                2.1796         estimate D2E/DX2                !
 ! R22   R(12,23)                2.174          estimate D2E/DX2                !
 ! R23   R(12,26)                2.0297         estimate D2E/DX2                !
 ! R24   R(19,20)                1.3236         estimate D2E/DX2                !
 ! R25   R(19,21)                1.227          estimate D2E/DX2                !
 ! R26   R(19,22)                1.5167         estimate D2E/DX2                !
 ! R27   R(20,29)                0.978          estimate D2E/DX2                !
 ! R28   R(22,23)                1.4751         estimate D2E/DX2                !
 ! R29   R(22,30)                1.0961         estimate D2E/DX2                !
 ! R30   R(22,31)                1.0951         estimate D2E/DX2                !
 ! R31   R(23,24)                1.4896         estimate D2E/DX2                !
 ! R32   R(23,32)                1.019          estimate D2E/DX2                !
 ! R33   R(24,25)                1.857          estimate D2E/DX2                !
 ! R34   R(24,33)                1.0954         estimate D2E/DX2                !
 ! R35   R(24,34)                1.0917         estimate D2E/DX2                !
 ! R36   R(25,26)                1.5409         estimate D2E/DX2                !
 ! R37   R(25,27)                1.5162         estimate D2E/DX2                !
 ! R38   R(25,28)                1.6247         estimate D2E/DX2                !
 ! R39   R(28,36)                0.9729         estimate D2E/DX2                !
 ! A1    A(2,1,4)              112.1252         estimate D2E/DX2                !
 ! A2    A(2,1,5)              124.597          estimate D2E/DX2                !
 ! A3    A(4,1,5)              123.2769         estimate D2E/DX2                !
 ! A4    A(1,2,3)              111.4202         estimate D2E/DX2                !
 ! A5    A(1,2,15)             108.5935         estimate D2E/DX2                !
 ! A6    A(1,2,16)             107.0834         estimate D2E/DX2                !
 ! A7    A(3,2,15)             112.2752         estimate D2E/DX2                !
 ! A8    A(3,2,16)             110.7267         estimate D2E/DX2                !
 ! A9    A(15,2,16)            106.4832         estimate D2E/DX2                !
 ! A10   A(2,3,6)              114.6469         estimate D2E/DX2                !
 ! A11   A(2,3,12)             109.9639         estimate D2E/DX2                !
 ! A12   A(2,3,14)             110.1462         estimate D2E/DX2                !
 ! A13   A(6,3,12)             104.604          estimate D2E/DX2                !
 ! A14   A(6,3,14)             108.6977         estimate D2E/DX2                !
 ! A15   A(12,3,14)            108.5074         estimate D2E/DX2                !
 ! A16   A(1,4,13)             109.9489         estimate D2E/DX2                !
 ! A17   A(1,5,12)             113.2094         estimate D2E/DX2                !
 ! A18   A(3,6,7)              109.3754         estimate D2E/DX2                !
 ! A19   A(3,6,17)             107.6523         estimate D2E/DX2                !
 ! A20   A(3,6,18)             112.8727         estimate D2E/DX2                !
 ! A21   A(7,6,17)             106.6717         estimate D2E/DX2                !
 ! A22   A(7,6,18)             110.6587         estimate D2E/DX2                !
 ! A23   A(17,6,18)            109.3776         estimate D2E/DX2                !
 ! A24   A(6,7,8)              110.9887         estimate D2E/DX2                !
 ! A25   A(6,7,9)              107.721          estimate D2E/DX2                !
 ! A26   A(6,7,10)             102.0258         estimate D2E/DX2                !
 ! A27   A(8,7,9)              116.26           estimate D2E/DX2                !
 ! A28   A(8,7,10)             105.29           estimate D2E/DX2                !
 ! A29   A(9,7,10)             113.6676         estimate D2E/DX2                !
 ! A30   A(7,8,11)             114.5107         estimate D2E/DX2                !
 ! A31   A(7,9,12)             112.3232         estimate D2E/DX2                !
 ! A32   A(7,10,35)            115.1359         estimate D2E/DX2                !
 ! A33   A(3,12,5)              78.8361         estimate D2E/DX2                !
 ! A34   A(3,12,9)              82.1502         estimate D2E/DX2                !
 ! A35   A(3,12,21)            103.7459         estimate D2E/DX2                !
 ! A36   A(3,12,26)             91.7856         estimate D2E/DX2                !
 ! A37   A(5,12,9)              89.5751         estimate D2E/DX2                !
 ! A38   A(5,12,21)             85.3753         estimate D2E/DX2                !
 ! A39   A(5,12,23)            106.0773         estimate D2E/DX2                !
 ! A40   A(9,12,23)             95.1464         estimate D2E/DX2                !
 ! A41   A(9,12,26)             93.4757         estimate D2E/DX2                !
 ! A42   A(21,12,23)            79.5082         estimate D2E/DX2                !
 ! A43   A(21,12,26)            92.7313         estimate D2E/DX2                !
 ! A44   A(23,12,26)            83.504          estimate D2E/DX2                !
 ! A45   A(20,19,21)           123.1949         estimate D2E/DX2                !
 ! A46   A(20,19,22)           112.2653         estimate D2E/DX2                !
 ! A47   A(21,19,22)           124.5356         estimate D2E/DX2                !
 ! A48   A(19,20,29)           109.9188         estimate D2E/DX2                !
 ! A49   A(12,21,19)           111.5385         estimate D2E/DX2                !
 ! A50   A(19,22,23)           111.5641         estimate D2E/DX2                !
 ! A51   A(19,22,30)           106.7002         estimate D2E/DX2                !
 ! A52   A(19,22,31)           108.9807         estimate D2E/DX2                !
 ! A53   A(23,22,30)           110.2277         estimate D2E/DX2                !
 ! A54   A(23,22,31)           112.4117         estimate D2E/DX2                !
 ! A55   A(30,22,31)           106.6822         estimate D2E/DX2                !
 ! A56   A(12,23,22)           108.8598         estimate D2E/DX2                !
 ! A57   A(12,23,24)           103.6329         estimate D2E/DX2                !
 ! A58   A(12,23,32)           111.8337         estimate D2E/DX2                !
 ! A59   A(22,23,24)           113.7855         estimate D2E/DX2                !
 ! A60   A(22,23,32)           109.6649         estimate D2E/DX2                !
 ! A61   A(24,23,32)           108.9851         estimate D2E/DX2                !
 ! A62   A(23,24,25)           110.1096         estimate D2E/DX2                !
 ! A63   A(23,24,33)           112.226          estimate D2E/DX2                !
 ! A64   A(23,24,34)           107.507          estimate D2E/DX2                !
 ! A65   A(25,24,33)           110.9609         estimate D2E/DX2                !
 ! A66   A(25,24,34)           106.7792         estimate D2E/DX2                !
 ! A67   A(33,24,34)           109.0421         estimate D2E/DX2                !
 ! A68   A(24,25,26)           104.9412         estimate D2E/DX2                !
 ! A69   A(24,25,27)           110.9781         estimate D2E/DX2                !
 ! A70   A(24,25,28)           102.7957         estimate D2E/DX2                !
 ! A71   A(26,25,27)           117.7566         estimate D2E/DX2                !
 ! A72   A(26,25,28)           108.6284         estimate D2E/DX2                !
 ! A73   A(27,25,28)           110.5771         estimate D2E/DX2                !
 ! A74   A(12,26,25)           113.8005         estimate D2E/DX2                !
 ! A75   A(25,28,36)           112.8233         estimate D2E/DX2                !
 ! A76   L(3,12,23,5,-1)       184.9134         estimate D2E/DX2                !
 ! A77   L(5,12,26,3,-1)       170.6216         estimate D2E/DX2                !
 ! A78   L(9,12,21,3,-1)       185.8961         estimate D2E/DX2                !
 ! A79   L(3,12,23,5,-2)       182.6841         estimate D2E/DX2                !
 ! A80   L(5,12,26,3,-2)       184.3854         estimate D2E/DX2                !
 ! A81   L(9,12,21,3,-2)       186.5144         estimate D2E/DX2                !
 ! D1    D(4,1,2,3)           -174.8833         estimate D2E/DX2                !
 ! D2    D(4,1,2,15)           -50.7182         estimate D2E/DX2                !
 ! D3    D(4,1,2,16)            63.8996         estimate D2E/DX2                !
 ! D4    D(5,1,2,3)              5.456          estimate D2E/DX2                !
 ! D5    D(5,1,2,15)           129.6211         estimate D2E/DX2                !
 ! D6    D(5,1,2,16)          -115.7611         estimate D2E/DX2                !
 ! D7    D(2,1,4,13)          -178.4304         estimate D2E/DX2                !
 ! D8    D(5,1,4,13)             1.2355         estimate D2E/DX2                !
 ! D9    D(2,1,5,12)             5.7357         estimate D2E/DX2                !
 ! D10   D(4,1,5,12)          -173.8884         estimate D2E/DX2                !
 ! D11   D(1,2,3,6)           -130.5746         estimate D2E/DX2                !
 ! D12   D(1,2,3,12)           -13.0701         estimate D2E/DX2                !
 ! D13   D(1,2,3,14)           106.4676         estimate D2E/DX2                !
 ! D14   D(15,2,3,6)           107.3639         estimate D2E/DX2                !
 ! D15   D(15,2,3,12)         -135.1315         estimate D2E/DX2                !
 ! D16   D(15,2,3,14)          -15.5938         estimate D2E/DX2                !
 ! D17   D(16,2,3,6)           -11.5069         estimate D2E/DX2                !
 ! D18   D(16,2,3,12)          105.9977         estimate D2E/DX2                !
 ! D19   D(16,2,3,14)         -134.4646         estimate D2E/DX2                !
 ! D20   D(2,3,6,7)             77.3147         estimate D2E/DX2                !
 ! D21   D(2,3,6,17)          -167.1513         estimate D2E/DX2                !
 ! D22   D(2,3,6,18)           -46.3445         estimate D2E/DX2                !
 ! D23   D(12,3,6,7)           -43.199          estimate D2E/DX2                !
 ! D24   D(12,3,6,17)           72.3351         estimate D2E/DX2                !
 ! D25   D(12,3,6,18)         -166.8581         estimate D2E/DX2                !
 ! D26   D(14,3,6,7)          -158.9514         estimate D2E/DX2                !
 ! D27   D(14,3,6,17)          -43.4173         estimate D2E/DX2                !
 ! D28   D(14,3,6,18)           77.3895         estimate D2E/DX2                !
 ! D29   D(2,3,12,5)            12.3557         estimate D2E/DX2                !
 ! D30   D(2,3,12,9)           -78.7661         estimate D2E/DX2                !
 ! D31   D(2,3,12,21)           94.7194         estimate D2E/DX2                !
 ! D32   D(2,3,12,26)         -172.0298         estimate D2E/DX2                !
 ! D33   D(6,3,12,5)           135.939          estimate D2E/DX2                !
 ! D34   D(6,3,12,9)            44.8172         estimate D2E/DX2                !
 ! D35   D(6,3,12,21)         -141.6973         estimate D2E/DX2                !
 ! D36   D(6,3,12,26)          -48.4465         estimate D2E/DX2                !
 ! D37   D(14,3,12,5)         -108.1763         estimate D2E/DX2                !
 ! D38   D(14,3,12,9)          160.7019         estimate D2E/DX2                !
 ! D39   D(14,3,12,21)         -25.8125         estimate D2E/DX2                !
 ! D40   D(14,3,12,26)          67.4383         estimate D2E/DX2                !
 ! D41   D(1,5,12,3)           -10.02           estimate D2E/DX2                !
 ! D42   D(1,5,12,9)            72.0623         estimate D2E/DX2                !
 ! D43   D(1,5,12,21)         -115.028          estimate D2E/DX2                !
 ! D44   D(1,5,12,23)          167.296          estimate D2E/DX2                !
 ! D45   D(3,6,7,8)            146.4882         estimate D2E/DX2                !
 ! D46   D(3,6,7,9)             18.166          estimate D2E/DX2                !
 ! D47   D(3,6,7,10)          -101.7649         estimate D2E/DX2                !
 ! D48   D(17,6,7,8)            30.329          estimate D2E/DX2                !
 ! D49   D(17,6,7,9)           -97.9932         estimate D2E/DX2                !
 ! D50   D(17,6,7,10)          142.0759         estimate D2E/DX2                !
 ! D51   D(18,6,7,8)           -88.557          estimate D2E/DX2                !
 ! D52   D(18,6,7,9)           143.1208         estimate D2E/DX2                !
 ! D53   D(18,6,7,10)           23.1899         estimate D2E/DX2                !
 ! D54   D(6,7,8,11)           -85.4538         estimate D2E/DX2                !
 ! D55   D(9,7,8,11)            38.1058         estimate D2E/DX2                !
 ! D56   D(10,7,8,11)          164.8991         estimate D2E/DX2                !
 ! D57   D(6,7,9,12)            18.731          estimate D2E/DX2                !
 ! D58   D(8,7,9,12)          -106.5054         estimate D2E/DX2                !
 ! D59   D(10,7,9,12)          130.9949         estimate D2E/DX2                !
 ! D60   D(6,7,10,35)         -157.3346         estimate D2E/DX2                !
 ! D61   D(8,7,10,35)          -41.3648         estimate D2E/DX2                !
 ! D62   D(9,7,10,35)           86.997          estimate D2E/DX2                !
 ! D63   D(7,9,12,3)           -35.1765         estimate D2E/DX2                !
 ! D64   D(7,9,12,5)          -113.965          estimate D2E/DX2                !
 ! D65   D(7,9,12,23)          139.9302         estimate D2E/DX2                !
 ! D66   D(7,9,12,26)           56.1493         estimate D2E/DX2                !
 ! D67   D(3,12,21,19)         161.7929         estimate D2E/DX2                !
 ! D68   D(5,12,21,19)        -120.9023         estimate D2E/DX2                !
 ! D69   D(23,12,21,19)        -13.5922         estimate D2E/DX2                !
 ! D70   D(26,12,21,19)         69.2835         estimate D2E/DX2                !
 ! D71   D(5,12,23,22)          99.5395         estimate D2E/DX2                !
 ! D72   D(5,12,23,24)        -139.0344         estimate D2E/DX2                !
 ! D73   D(5,12,23,32)         -21.7895         estimate D2E/DX2                !
 ! D74   D(9,12,23,22)        -169.4172         estimate D2E/DX2                !
 ! D75   D(9,12,23,24)         -47.9911         estimate D2E/DX2                !
 ! D76   D(9,12,23,32)          69.2538         estimate D2E/DX2                !
 ! D77   D(21,12,23,22)         17.5127         estimate D2E/DX2                !
 ! D78   D(21,12,23,24)        138.9388         estimate D2E/DX2                !
 ! D79   D(21,12,23,32)       -103.8163         estimate D2E/DX2                !
 ! D80   D(26,12,23,22)        -76.4934         estimate D2E/DX2                !
 ! D81   D(26,12,23,24)         44.9327         estimate D2E/DX2                !
 ! D82   D(26,12,23,32)        162.1776         estimate D2E/DX2                !
 ! D83   D(3,12,26,25)         140.1324         estimate D2E/DX2                !
 ! D84   D(9,12,26,25)          57.8912         estimate D2E/DX2                !
 ! D85   D(21,12,26,25)       -116.0112         estimate D2E/DX2                !
 ! D86   D(23,12,26,25)        -36.9004         estimate D2E/DX2                !
 ! D87   D(21,19,20,29)          1.8972         estimate D2E/DX2                !
 ! D88   D(22,19,20,29)       -177.3807         estimate D2E/DX2                !
 ! D89   D(20,19,21,12)       -172.4179         estimate D2E/DX2                !
 ! D90   D(22,19,21,12)          6.7709         estimate D2E/DX2                !
 ! D91   D(20,19,22,23)       -171.7878         estimate D2E/DX2                !
 ! D92   D(20,19,22,30)         67.7671         estimate D2E/DX2                !
 ! D93   D(20,19,22,31)        -47.0756         estimate D2E/DX2                !
 ! D94   D(21,19,22,23)          8.9457         estimate D2E/DX2                !
 ! D95   D(21,19,22,30)       -111.4994         estimate D2E/DX2                !
 ! D96   D(21,19,22,31)        133.6579         estimate D2E/DX2                !
 ! D97   D(19,22,23,12)        -19.1026         estimate D2E/DX2                !
 ! D98   D(19,22,23,24)       -134.1109         estimate D2E/DX2                !
 ! D99   D(19,22,23,32)        103.5422         estimate D2E/DX2                !
 ! D100  D(30,22,23,12)         99.2519         estimate D2E/DX2                !
 ! D101  D(30,22,23,24)        -15.7564         estimate D2E/DX2                !
 ! D102  D(30,22,23,32)       -138.1034         estimate D2E/DX2                !
 ! D103  D(31,22,23,12)       -141.8738         estimate D2E/DX2                !
 ! D104  D(31,22,23,24)        103.1179         estimate D2E/DX2                !
 ! D105  D(31,22,23,32)        -19.2291         estimate D2E/DX2                !
 ! D106  D(12,23,24,25)        -42.1991         estimate D2E/DX2                !
 ! D107  D(12,23,24,33)       -166.334          estimate D2E/DX2                !
 ! D108  D(12,23,24,34)         73.7677         estimate D2E/DX2                !
 ! D109  D(22,23,24,25)         75.861          estimate D2E/DX2                !
 ! D110  D(22,23,24,33)        -48.2739         estimate D2E/DX2                !
 ! D111  D(22,23,24,34)       -168.1722         estimate D2E/DX2                !
 ! D112  D(32,23,24,25)       -161.4183         estimate D2E/DX2                !
 ! D113  D(32,23,24,33)         74.4468         estimate D2E/DX2                !
 ! D114  D(32,23,24,34)        -45.4515         estimate D2E/DX2                !
 ! D115  D(23,24,25,26)         17.1953         estimate D2E/DX2                !
 ! D116  D(23,24,25,27)        145.4054         estimate D2E/DX2                !
 ! D117  D(23,24,25,28)        -96.3599         estimate D2E/DX2                !
 ! D118  D(33,24,25,26)        142.0589         estimate D2E/DX2                !
 ! D119  D(33,24,25,27)        -89.731          estimate D2E/DX2                !
 ! D120  D(33,24,25,28)         28.5037         estimate D2E/DX2                !
 ! D121  D(34,24,25,26)        -99.2278         estimate D2E/DX2                !
 ! D122  D(34,24,25,27)         28.9823         estimate D2E/DX2                !
 ! D123  D(34,24,25,28)        147.217          estimate D2E/DX2                !
 ! D124  D(24,25,26,12)         20.1871         estimate D2E/DX2                !
 ! D125  D(27,25,26,12)       -103.8103         estimate D2E/DX2                !
 ! D126  D(28,25,26,12)        129.5682         estimate D2E/DX2                !
 ! D127  D(24,25,28,36)       -129.6516         estimate D2E/DX2                !
 ! D128  D(26,25,28,36)        119.52           estimate D2E/DX2                !
 ! D129  D(27,25,28,36)        -11.1352         estimate D2E/DX2                !
 --------------------------------------------------------------------------------
 Trust Radius=3.00D-01 FncErr=1.00D-07 GrdErr=1.00D-06 EigMax=2.50D+02 EigMin=1.00D-04
 Number of steps in this run=    216 maximum allowed number of steps=    216.
 GradGradGradGradGradGradGradGradGradGradGradGradGradGradGradGradGradGrad

                          Input orientation:                          
 ---------------------------------------------------------------------
 Center     Atomic      Atomic             Coordinates (Angstroms)
 Number     Number       Type             X           Y           Z
 ---------------------------------------------------------------------
      1          6           0       -2.351559   -2.278100    0.275592
      2          6           0       -2.773749   -1.396946   -0.887054
      3          7           0       -1.644905   -0.599194   -1.394862
      4          8           0       -3.326539   -3.080204    0.672881
      5          8           0       -1.243521   -2.255679    0.799386
      6          6           0       -1.932607    0.848055   -1.555886
      7         15           0       -1.889273    1.667757    0.095187
      8          8           0       -1.348765    3.131513   -0.019853
      9          8           0       -1.143224    0.748101    1.049077
     10          8           0       -3.454028    1.818926    0.435457
     11          1           0       -0.302790    3.212821    0.007571
     12         30           0        0.033755   -0.676816    0.032060
     13          1           0       -3.029154   -3.614069    1.436677
     14          1           0       -1.327024   -0.970307   -2.288509
     15          1           0       -3.216409   -2.030805   -1.662885
     16          1           0       -3.576032   -0.745564   -0.522541
     17          1           0       -1.121661    1.283498   -2.143167
     18          1           0       -2.887672    1.039109   -2.057280
     19          6           0        2.418796   -2.239527   -0.266272
     20          8           0        3.405709   -3.018798   -0.679344
     21          8           0        1.281879   -2.295700   -0.724185
     22          6           0        2.864092   -1.271773    0.813350
     23          7           0        1.719534   -0.548539    1.398771
     24          6           0        1.944619    0.916986    1.542078
     25         15           0        1.796290    1.750351   -0.110767
     26          8           0        1.063441    0.731693   -1.004957
     27          8           0        1.188020    3.132018    0.030583
     28          8           0        3.341674    1.854237   -0.601348
     29          1           0        3.092316   -3.598612   -1.401941
     30          1           0        3.555329   -0.566206    0.338271
     31          1           0        3.441432   -1.818912    1.566050
     32          1           0        1.497218   -0.940709    2.312628
     33          1           0        2.908368    1.144321    2.010464
     34          1           0        1.142349    1.312827    2.167735
     35          1           0       -3.671769    2.515712    1.080229
     36          1           0        3.585800    2.749923   -0.892517
 ---------------------------------------------------------------------
                    Distance matrix (angstroms):
                    1          2          3          4          5
     1  C    0.000000
     2  C    1.518691   0.000000
     3  N    2.471538   1.472606   0.000000
     4  O    1.323554   2.360578   3.641272   0.000000
     5  O    1.225810   2.433742   2.778448   2.243837   0.000000
     6  C    3.647283   2.488953   1.484328   4.726696   3.956679
     7  P    3.976938   3.337589   2.723788   4.994256   4.038099
     8  O    5.509700   4.825926   3.987044   6.555676   5.450144
     9  O    3.349066   3.317897   2.835440   4.423155   3.015808
    10  O    4.245777   3.543113   3.531331   4.906536   4.649860
    11  H    5.866814   5.306218   4.277797   7.013406   5.605038
    12  Zn   2.883252   3.040631   2.204548   4.180729   2.170952
    13  H    1.895274   3.221892   4.361562   0.978179   2.332347
    14  H    3.055260   2.058911   1.018518   4.149645   3.345781
    15  H    2.137010   1.095280   2.142655   2.563038   3.163167
    16  H    2.117786   1.095822   2.124057   2.634734   3.077100
    17  H    4.477502   3.389985   2.092432   5.642119   4.604264
    18  H    4.090670   2.704953   2.160394   4.961362   4.660408
    19  C    4.801186   5.296965   4.525271   5.881974   3.814244
    20  O    5.882743   6.392124   5.645808   6.866982   4.938049
    21  O    3.768519   4.157211   3.448769   4.879012   2.949664
    22  C    5.338998   5.890017   5.065533   6.450897   4.223832
    23  N    4.563629   5.112181   4.373374   5.692020   3.471785
    24  C    5.501792   5.789471   4.879457   6.672191   4.558688
    25  P    5.795027   5.602978   4.360170   7.084613   5.110490
    26  O    4.728730   4.389651   3.042766   6.051249   4.183554
    27  O    6.469778   6.086805   4.896866   7.706198   5.960766
    28  O    7.089297   6.931827   5.613818   8.392700   6.314862
    29  H    5.847533   6.286745   5.606944   6.765746   5.044679
    30  H    6.150271   6.499906   5.481539   7.334320   5.108416
    31  H    5.952720   6.695091   6.010452   6.942192   4.767318
    32  H    4.555350   5.356051   4.871863   5.525834   3.395689
    33  H    6.510728   6.865865   5.947132   7.649170   5.501354
    34  H    5.355590   5.657776   4.910876   6.442380   4.505440
    35  H    5.036966   4.470519   4.465074   5.621333   5.361104
    36  H    7.867511   7.592129   6.231309   9.177215   7.158277
                    6          7          8          9         10
     6  C    0.000000
     7  P    1.843863   0.000000
     8  O    2.813264   1.564598   0.000000
     9  O    2.723774   1.520612   2.620212   0.000000
    10  O    2.687520   1.608445   2.522364   2.619735   0.000000
    11  H    3.269988   2.216265   1.049490   2.804623   3.472223
    12  Zn   2.951844   3.032993   4.051843   2.109501   4.307679
    13  H    5.483465   5.567459   7.102680   4.768174   5.540793
    14  H    2.051806   3.599654   4.687452   3.758482   4.441167
    15  H    3.153955   4.304819   5.730373   4.401721   4.390892
    16  H    2.511626   3.008464   4.499460   3.258768   2.740302
    17  H    1.091853   2.397314   2.824040   3.236903   3.517943
    18  H    1.095466   2.454610   3.301136   3.574526   2.672567
    19  C    5.489169   5.827262   6.565312   4.831568   7.173112
    20  O    6.649699   7.113404   7.801684   6.153841   8.467724
    21  O    4.572510   5.141650   6.072151   4.276717   6.379948
    22  C    5.754587   5.634809   6.150718   4.493778   7.043711
    23  N    4.900879   4.431116   4.996973   3.162111   5.770495
    24  C    4.963368   4.166039   4.264990   3.131509   5.584219
    25  P    4.099656   3.692237   3.436167   3.315190   5.279100
    26  O    3.048503   3.287104   3.542359   3.014746   4.864606
    27  O    4.179915   3.408514   2.537287   3.486415   4.841151
    28  O    5.453584   5.280411   4.895895   4.905278   6.874429
    29  H    6.711661   7.402179   8.180951   6.545319   8.693697
    30  H    5.975400   5.890108   6.152359   4.930421   7.404687
    31  H    6.763098   6.537332   7.068790   5.279762   7.877783
    32  H    5.470720   4.815544   5.488450   3.379434   5.971113
    33  H    6.020105   5.192266   5.118037   4.182900   6.589068
    34  H    4.851466   3.689466   3.781377   2.606560   4.937975
    35  H    3.571396   2.206044   2.643054   3.085281   0.973988
    36  H    5.874520   5.667722   5.025643   5.490059   7.224227
                   11         12         13         14         15
    11  H    0.000000
    12  Zn   3.904247   0.000000
    13  H    7.488780   4.470102   0.000000
    14  H    4.880533   2.706085   4.874806   0.000000
    15  H    6.226975   3.907645   3.485551   2.255181   0.000000
    16  H    5.163714   3.652790   3.516523   2.868308   1.755437
    17  H    3.003084   3.147925   6.359243   2.267804   3.950094
    18  H    3.958567   3.980512   5.820637   2.554768   3.112554
    19  C    6.100010   2.866965   5.871078   4.442019   5.809443
    20  O    7.284085   4.166658   6.799952   5.402267   6.767268
    21  O    5.778447   2.179565   4.999242   3.318155   4.602817
    22  C    5.548875   2.995863   6.372224   5.222822   6.609112
    23  N    4.491444   2.173984   5.652340   4.801608   5.994529
    24  C    3.560396   2.910629   6.729040   5.379491   6.752590
    25  P    2.561046   3.003010   7.379464   4.679704   6.467871
    26  O    3.007955   2.029669   6.449539   3.202910   5.136281
    27  O    1.493176   3.979893   8.079068   5.341601   6.994396
    28  O    3.936832   4.213046   8.639639   5.711506   7.696029
    29  H    7.740096   4.466323   6.747620   5.217715   6.505852
    30  H    5.410683   3.536592   7.338350   5.558834   7.211526
    31  H    6.462692   3.907655   6.716234   6.189986   7.402551
    32  H    5.079875   2.722564   5.329370   5.398859   6.261892
    33  H    4.312981   3.936245   7.630575   6.394635   7.815869
    34  H    3.219428   3.122301   6.496936   5.582885   6.697185
    35  H    3.603690   5.002180   6.173672   5.385031   5.329432
    36  H    4.018154   5.021395   9.470119   6.318603   8.349783
                   16         17         18         19         20
    16  H    0.000000
    17  H    3.573158   0.000000
    18  H    2.452411   1.784908   0.000000
    19  C    6.183491   5.335661   6.489666   0.000000
    20  O    7.344173   6.414796   7.613932   1.323589   0.000000
    21  O    5.103223   4.538852   5.503022   1.226955   2.243999
    22  C    6.598235   5.581813   6.831067   1.516714   2.360843
    23  N    5.636779   4.896334   5.974217   2.474020   3.641967
    24  C    6.124077   4.808060   6.026718   3.668590   4.749726
    25  P    5.938096   3.586508   5.121940   4.041142   5.065402
    26  O    4.892824   2.524814   4.100388   3.348253   4.433783
    27  O    6.167478   3.671083   5.034949   5.518735   6.576829
    28  O    7.390523   4.756502   6.448947   4.209856   4.874080
    29  H    7.306168   6.491688   7.595932   1.894857   0.978032
    30  H    7.185365   5.608313   7.058892   2.111204   2.659536
    31  H    7.399938   6.648688   7.832902   2.140118   2.546133
    32  H    5.814992   5.626699   6.499464   3.031000   4.112504
    33  H    7.213544   5.789055   7.081785   4.107753   4.981363
    34  H    5.808414   4.869341   5.845232   4.491428   5.656114
    35  H    3.635101   4.290884   3.555155   7.843491   9.155195
    36  H    7.977916   5.086720   6.796278   5.162238   5.775467
                   21         22         23         24         25
    21  O    0.000000
    22  C    2.432250   0.000000
    23  N    2.784072   1.475059   0.000000
    24  C    3.987045   2.483373   1.489619   0.000000
    25  P    4.124492   3.335780   2.751271   1.856986   0.000000
    26  O    3.048222   3.249994   2.801314   2.701517   1.540878
    27  O    5.480749   4.776538   3.962442   2.786292   1.516237
    28  O    4.634633   3.464303   3.522094   2.724789   1.624707
    29  H    2.331226   3.220835   4.362506   5.511359   5.653161
    30  H    3.047710   1.096054   2.120169   2.498679   2.943177
    31  H    3.183735   1.095098   2.146336   3.118679   4.272920
    32  H    3.332358   2.055671   1.018998   2.060327   3.633744
    33  H    4.685885   2.696767   2.157144   1.095389   2.470549
    34  H    4.626460   3.388055   2.095025   1.091684   2.410526
    35  H    7.137523   7.558687   6.209449   5.857734   5.648355
    36  H    5.549298   4.427740   4.428634   3.461269   2.193770
                   26         27         28         29         30
    26  O    0.000000
    27  O    2.617140   0.000000
    28  O    2.571643   2.582689   0.000000
    29  H    4.798487   7.140017   5.516946   0.000000
    30  H    3.114211   4.401782   2.605202   3.526784   0.000000
    31  H    4.332494   5.652188   4.266098   3.478244   1.757751
    32  H    3.740516   4.678722   4.439031   4.838058   2.876484
    33  H    3.559042   3.290967   2.741039   5.845832   2.478042
    34  H    3.226440   2.806949   3.577426   6.377083   3.563731
    35  H    5.472927   5.009904   7.242488   9.449813   7.891747
    36  H    3.232366   2.597587   0.972949   6.388031   3.537298
                   31         32         33         34         35
    31  H    0.000000
    32  H    2.260218   0.000000
    33  H    3.043421   2.535744   0.000000
    34  H    3.931360   2.285902   1.780998   0.000000
    35  H    8.344017   6.339092   6.785592   5.079895   0.000000
    36  H    5.190342   5.315627   3.385878   4.171432   7.524553
                   36
    36  H    0.000000
 Stoichiometry    C6H15N2O10P2Zn(1+)
 Framework group  C1[X(C6H15N2O10P2Zn)]
 Deg. of freedom   102
 Full point group                 C1      NOp   1
 Largest Abelian subgroup         C1      NOp   1
 Largest concise Abelian subgroup C1      NOp   1
                         Standard orientation:                         
 ---------------------------------------------------------------------
 Center     Atomic      Atomic             Coordinates (Angstroms)
 Number     Number       Type             X           Y           Z
 ---------------------------------------------------------------------
      1          6           0       -2.288894    2.314136   -0.295975
      2          6           0       -2.744792    1.441788    0.860567
      3          7           0       -1.641367    0.615469    1.378462
      4          8           0       -3.239548    3.140809   -0.701762
      5          8           0       -1.176386    2.265135   -0.808355
      6          6           0       -1.966467   -0.824471    1.533741
      7         15           0       -1.926343   -1.642257   -0.118362
      8          8           0       -1.423464   -3.119146   -0.000555
      9          8           0       -1.147912   -0.739790   -1.062746
     10          8           0       -3.490753   -1.754044   -0.475042
     11          1           0       -0.379594   -3.226301   -0.017345
     12         30           0        0.053391    0.653838   -0.030919
     13          1           0       -2.921140    3.668407   -1.461428
     14          1           0       -1.323667    0.977110    2.276049
     15          1           0       -3.179634    2.085134    1.633002
     16          1           0       -3.559139    0.811090    0.486553
     17          1           0       -1.172678   -1.280847    2.128521
     18          1           0       -2.931111   -0.992632    2.024892
     19          6           0        2.473174    2.156476    0.294985
     20          8           0        3.474748    2.910367    0.719703
     21          8           0        1.333315    2.240043    0.741254
     22          6           0        2.905531    1.179775   -0.781837
     23          7           0        1.749542    0.486095   -1.380414
     24          6           0        1.939744   -0.984318   -1.524196
     25         15           0        1.753714   -1.816490    0.125433
     26          8           0        1.037089   -0.781470    1.013965
     27          8           0        1.112918   -3.182425   -0.024826
     28          8           0        3.290888   -1.959449    0.631727
     29          1           0        3.168339    3.496570    1.440138
     30          1           0        3.574129    0.456511   -0.301005
     31          1           0        3.504006    1.713688   -1.527494
     32          1           0        1.546482    0.885167   -2.295764
     33          1           0        2.902368   -1.234687   -1.983051
     34          1           0        1.134442   -1.359120   -2.158850
     35          1           0       -3.718989   -2.444151   -1.123356
     36          1           0        3.509733   -2.861391    0.923684
 ---------------------------------------------------------------------
 Rotational constants (GHZ):           0.3119383           0.2596527           0.1645875
 Standard basis: def2TZVP (5D, 7F)
 There are   877 symmetry adapted cartesian basis functions of A   symmetry.
 There are   770 symmetry adapted basis functions of A   symmetry.
   770 basis functions,  1281 primitive gaussians,   877 cartesian basis functions
   102 alpha electrons      102 beta electrons
       nuclear repulsion energy      3156.1218286565 Hartrees.
 NAtoms=   36 NActive=   36 NUniq=   36 SFac= 1.00D+00 NAtFMM=   60 NAOKFM=F Big=F
 Integral buffers will be    131072 words long.
 Raffenetti 2 integral format.
 Two-electron integral symmetry is turned on.
 Nuclear repulsion after empirical dispersion term =     3156.1128739562 Hartrees.
 One-electron integrals computed using PRISM.
   1 Symmetry operations used in ECPInt.
 ECPInt:  NShTT=   45150 NPrTT=  147183 LenC2=   39561 LenP2D=   88393.
 LDataN:  DoStor=T MaxTD1= 6 Len=  172
 NBasis=   770 RedAO= T EigKep=  1.75D-04  NBF=   770
 NBsUse=   770 1.00D-06 EigRej= -1.00D+00 NBFU=   770
 ExpMin= 4.78D-02 ExpMax= 4.06D+05 ExpMxC= 3.92D+03 IAcc=3 IRadAn=         5 AccDes= 0.00D+00
 Harris functional with IExCor= 1009 and IRadAn=       5 diagonalized for initial guess.
 HarFok:  IExCor= 1009 AccDes= 0.00D+00 IRadAn=         5 IDoV= 1 UseB2=F ITyADJ=14
 ICtDFT=  3500011 ScaDFX=  1.000000  1.000000  1.000000  1.000000
 FoFCou: FMM=F IPFlag=           0 FMFlag=      100000 FMFlg1=           0
         NFxFlg=           0 DoJE=T BraDBF=F KetDBF=T FulRan=T
         wScrn=  0.000000 ICntrl=       500 IOpCl=  0 I1Cent=   200000004 NGrid=           0
         NMat0=    1 NMatS0=      1 NMatT0=    0 NMatD0=    1 NMtDS0=    0 NMtDT0=    0
 Petite list used in FoFCou.
 Initial guess <Sx>= 0.0000 <Sy>= 0.0000 <Sz>= 0.0000 <S**2>=-0.0000 S=-0.0000
 Requested convergence on RMS density matrix=1.00D-08 within  32 cycles.
 Requested convergence on MAX density matrix=1.00D-06.
 Requested convergence on             energy=1.00D-06.
 No special actions if energy rises.
 SCF Done:  E(UM06) =  -3561.53477504     A.U. after   13 cycles
            NFock= 13  Conv=0.47D-08     -V/T= 2.0024
 <Sx>= 0.0000 <Sy>= 0.0000 <Sz>= 0.0000 <S**2>=-0.0000 S=-0.0000
 <L.S>= 0.000000000000E+00
 Annihilation of the first spin contaminant:
 S**2 before annihilation    -0.0000,   after    -0.0000
 QCSCF skips out because SCF is already converged.

 **********************************************************************

            Population analysis using the SCF Density.

 **********************************************************************

 Orbital symmetries:
 Alpha Orbitals:
       Occupied  (A) (A) (A) (A) (A) (A) (A) (A) (A) (A) (A) (A)
                 (A) (A) (A) (A) (A) (A) (A) (A) (A) (A) (A) (A)
                 (A) (A) (A) (A) (A) (A) (A) (A) (A) (A) (A) (A)
                 (A) (A) (A) (A) (A) (A) (A) (A) (A) (A) (A) (A)
                 (A) (A) (A) (A) (A) (A) (A) (A) (A) (A) (A) (A)
                 (A) (A) (A) (A) (A) (A) (A) (A) (A) (A) (A) (A)
                 (A) (A) (A) (A) (A) (A) (A) (A) (A) (A) (A) (A)
                 (A) (A) (A) (A) (A) (A) (A) (A) (A) (A) (A) (A)
                 (A) (A) (A) (A) (A) (A)
       Virtual   (A) (A) (A) (A) (A) (A) (A) (A) (A) (A) (A) (A)
                 (A) (A) (A) (A) (A) (A) (A) (A) (A) (A) (A) (A)
                 (A) (A) (A) (A) (A) (A) (A) (A) (A) (A) (A) (A)
                 (A) (A) (A) (A) (A) (A) (A) (A) (A) (A) (A) (A)
                 (A) (A) (A) (A) (A) (A) (A) (A) (A) (A) (A) (A)
                 (A) (A) (A) (A) (A) (A) (A) (A) (A) (A) (A) (A)
                 (A) (A) (A) (A) (A) (A) (A) (A) (A) (A) (A) (A)
                 (A) (A) (A) (A) (A) (A) (A) (A) (A) (A) (A) (A)
                 (A) (A) (A) (A) (A) (A) (A) (A) (A) (A) (A) (A)
                 (A) (A) (A) (A) (A) (A) (A) (A) (A) (A) (A) (A)
                 (A) (A) (A) (A) (A) (A) (A) (A) (A) (A) (A) (A)
                 (A) (A) (A) (A) (A) (A) (A) (A) (A) (A) (A) (A)
                 (A) (A) (A) (A) (A) (A) (A) (A) (A) (A) (A) (A)
                 (A) (A) (A) (A) (A) (A) (A) (A) (A) (A) (A) (A)
                 (A) (A) (A) (A) (A) (A) (A) (A) (A) (A) (A) (A)
                 (A) (A) (A) (A) (A) (A) (A) (A) (A) (A) (A) (A)
                 (A) (A) (A) (A) (A) (A) (A) (A) (A) (A) (A) (A)
                 (A) (A) (A) (A) (A) (A) (A) (A) (A) (A) (A) (A)
                 (A) (A) (A) (A) (A) (A) (A) (A) (A) (A) (A) (A)
                 (A) (A) (A) (A) (A) (A) (A) (A) (A) (A) (A) (A)
                 (A) (A) (A) (A) (A) (A) (A) (A) (A) (A) (A) (A)
                 (A) (A) (A) (A) (A) (A) (A) (A) (A) (A) (A) (A)
                 (A) (A) (A) (A) (A) (A) (A) (A) (A) (A) (A) (A)
                 (A) (A) (A) (A) (A) (A) (A) (A) (A) (A) (A) (A)
                 (A) (A) (A) (A) (A) (A) (A) (A) (A) (A) (A) (A)
                 (A) (A) (A) (A) (A) (A) (A) (A) (A) (A) (A) (A)
                 (A) (A) (A) (A) (A) (A) (A) (A) (A) (A) (A) (A)
                 (A) (A) (A) (A) (A) (A) (A) (A) (A) (A) (A) (A)
                 (A) (A) (A) (A) (A) (A) (A) (A) (A) (A) (A) (A)
                 (A) (A) (A) (A) (A) (A) (A) (A) (A) (A) (A) (A)
                 (A) (A) (A) (A) (A) (A) (A) (A) (A) (A) (A) (A)
                 (A) (A) (A) (A) (A) (A) (A) (A) (A) (A) (A) (A)
                 (A) (A) (A) (A) (A) (A) (A) (A) (A) (A) (A) (A)
                 (A) (A) (A) (A) (A) (A) (A) (A) (A) (A) (A) (A)
                 (A) (A) (A) (A) (A) (A) (A) (A) (A) (A) (A) (A)
                 (A) (A) (A) (A) (A) (A) (A) (A) (A) (A) (A) (A)
                 (A) (A) (A) (A) (A) (A) (A) (A) (A) (A) (A) (A)
                 (A) (A) (A) (A) (A) (A) (A) (A) (A) (A) (A) (A)
                 (A) (A) (A) (A) (A) (A) (A) (A) (A) (A) (A) (A)
                 (A) (A) (A) (A) (A) (A) (A) (A) (A) (A) (A) (A)
                 (A) (A) (A) (A) (A) (A) (A) (A) (A) (A) (A) (A)
                 (A) (A) (A) (A) (A) (A) (A) (A) (A) (A) (A) (A)
                 (A) (A) (A) (A) (A) (A) (A) (A) (A) (A) (A) (A)
                 (A) (A) (A) (A) (A) (A) (A) (A) (A) (A) (A) (A)
                 (A) (A) (A) (A) (A) (A) (A) (A) (A) (A) (A) (A)
                 (A) (A) (A) (A) (A) (A) (A) (A) (A) (A) (A) (A)
                 (A) (A) (A) (A) (A) (A) (A) (A) (A) (A) (A) (A)
                 (A) (A) (A) (A) (A) (A) (A) (A) (A) (A) (A) (A)
                 (A) (A) (A) (A) (A) (A) (A) (A) (A) (A) (A) (A)
                 (A) (A) (A) (A) (A) (A) (A) (A) (A) (A) (A) (A)
                 (A) (A) (A) (A) (A) (A) (A) (A) (A) (A) (A) (A)
                 (A) (A) (A) (A) (A) (A) (A) (A) (A) (A) (A) (A)
                 (A) (A) (A) (A) (A) (A) (A) (A) (A) (A) (A) (A)
                 (A) (A) (A) (A) (A) (A) (A) (A) (A) (A) (A) (A)
                 (A) (A) (A) (A) (A) (A) (A) (A) (A) (A) (A) (A)
                 (A) (A) (A) (A) (A) (A) (A) (A)
 Beta  Orbitals:
       Occupied  (A) (A) (A) (A) (A) (A) (A) (A) (A) (A) (A) (A)
                 (A) (A) (A) (A) (A) (A) (A) (A) (A) (A) (A) (A)
                 (A) (A) (A) (A) (A) (A) (A) (A) (A) (A) (A) (A)
                 (A) (A) (A) (A) (A) (A) (A) (A) (A) (A) (A) (A)
                 (A) (A) (A) (A) (A) (A) (A) (A) (A) (A) (A) (A)
                 (A) (A) (A) (A) (A) (A) (A) (A) (A) (A) (A) (A)
                 (A) (A) (A) (A) (A) (A) (A) (A) (A) (A) (A) (A)
                 (A) (A) (A) (A) (A) (A) (A) (A) (A) (A) (A) (A)
                 (A) (A) (A) (A) (A) (A)
       Virtual   (A) (A) (A) (A) (A) (A) (A) (A) (A) (A) (A) (A)
                 (A) (A) (A) (A) (A) (A) (A) (A) (A) (A) (A) (A)
                 (A) (A) (A) (A) (A) (A) (A) (A) (A) (A) (A) (A)
                 (A) (A) (A) (A) (A) (A) (A) (A) (A) (A) (A) (A)
                 (A) (A) (A) (A) (A) (A) (A) (A) (A) (A) (A) (A)
                 (A) (A) (A) (A) (A) (A) (A) (A) (A) (A) (A) (A)
                 (A) (A) (A) (A) (A) (A) (A) (A) (A) (A) (A) (A)
                 (A) (A) (A) (A) (A) (A) (A) (A) (A) (A) (A) (A)
                 (A) (A) (A) (A) (A) (A) (A) (A) (A) (A) (A) (A)
                 (A) (A) (A) (A) (A) (A) (A) (A) (A) (A) (A) (A)
                 (A) (A) (A) (A) (A) (A) (A) (A) (A) (A) (A) (A)
                 (A) (A) (A) (A) (A) (A) (A) (A) (A) (A) (A) (A)
                 (A) (A) (A) (A) (A) (A) (A) (A) (A) (A) (A) (A)
                 (A) (A) (A) (A) (A) (A) (A) (A) (A) (A) (A) (A)
                 (A) (A) (A) (A) (A) (A) (A) (A) (A) (A) (A) (A)
                 (A) (A) (A) (A) (A) (A) (A) (A) (A) (A) (A) (A)
                 (A) (A) (A) (A) (A) (A) (A) (A) (A) (A) (A) (A)
                 (A) (A) (A) (A) (A) (A) (A) (A) (A) (A) (A) (A)
                 (A) (A) (A) (A) (A) (A) (A) (A) (A) (A) (A) (A)
                 (A) (A) (A) (A) (A) (A) (A) (A) (A) (A) (A) (A)
                 (A) (A) (A) (A) (A) (A) (A) (A) (A) (A) (A) (A)
                 (A) (A) (A) (A) (A) (A) (A) (A) (A) (A) (A) (A)
                 (A) (A) (A) (A) (A) (A) (A) (A) (A) (A) (A) (A)
                 (A) (A) (A) (A) (A) (A) (A) (A) (A) (A) (A) (A)
                 (A) (A) (A) (A) (A) (A) (A) (A) (A) (A) (A) (A)
                 (A) (A) (A) (A) (A) (A) (A) (A) (A) (A) (A) (A)
                 (A) (A) (A) (A) (A) (A) (A) (A) (A) (A) (A) (A)
                 (A) (A) (A) (A) (A) (A) (A) (A) (A) (A) (A) (A)
                 (A) (A) (A) (A) (A) (A) (A) (A) (A) (A) (A) (A)
                 (A) (A) (A) (A) (A) (A) (A) (A) (A) (A) (A) (A)
                 (A) (A) (A) (A) (A) (A) (A) (A) (A) (A) (A) (A)
                 (A) (A) (A) (A) (A) (A) (A) (A) (A) (A) (A) (A)
                 (A) (A) (A) (A) (A) (A) (A) (A) (A) (A) (A) (A)
                 (A) (A) (A) (A) (A) (A) (A) (A) (A) (A) (A) (A)
                 (A) (A) (A) (A) (A) (A) (A) (A) (A) (A) (A) (A)
                 (A) (A) (A) (A) (A) (A) (A) (A) (A) (A) (A) (A)
                 (A) (A) (A) (A) (A) (A) (A) (A) (A) (A) (A) (A)
                 (A) (A) (A) (A) (A) (A) (A) (A) (A) (A) (A) (A)
                 (A) (A) (A) (A) (A) (A) (A) (A) (A) (A) (A) (A)
                 (A) (A) (A) (A) (A) (A) (A) (A) (A) (A) (A) (A)
                 (A) (A) (A) (A) (A) (A) (A) (A) (A) (A) (A) (A)
                 (A) (A) (A) (A) (A) (A) (A) (A) (A) (A) (A) (A)
                 (A) (A) (A) (A) (A) (A) (A) (A) (A) (A) (A) (A)
                 (A) (A) (A) (A) (A) (A) (A) (A) (A) (A) (A) (A)
                 (A) (A) (A) (A) (A) (A) (A) (A) (A) (A) (A) (A)
                 (A) (A) (A) (A) (A) (A) (A) (A) (A) (A) (A) (A)
                 (A) (A) (A) (A) (A) (A) (A) (A) (A) (A) (A) (A)
                 (A) (A) (A) (A) (A) (A) (A) (A) (A) (A) (A) (A)
                 (A) (A) (A) (A) (A) (A) (A) (A) (A) (A) (A) (A)
                 (A) (A) (A) (A) (A) (A) (A) (A) (A) (A) (A) (A)
                 (A) (A) (A) (A) (A) (A) (A) (A) (A) (A) (A) (A)
                 (A) (A) (A) (A) (A) (A) (A) (A) (A) (A) (A) (A)
                 (A) (A) (A) (A) (A) (A) (A) (A) (A) (A) (A) (A)
                 (A) (A) (A) (A) (A) (A) (A) (A) (A) (A) (A) (A)
                 (A) (A) (A) (A) (A) (A) (A) (A) (A) (A) (A) (A)
                 (A) (A) (A) (A) (A) (A) (A) (A)
 The electronic state is 1-A.
 Alpha  occ. eigenvalues -- -347.65837 -77.47083 -77.43432 -42.56369 -37.45095
 Alpha  occ. eigenvalues --  -37.45006 -37.44946 -19.41215 -19.40741 -19.37090
 Alpha  occ. eigenvalues --  -19.36784 -19.36577 -19.33844 -19.33778 -19.31563
 Alpha  occ. eigenvalues --  -19.29556 -19.27790 -14.57269 -14.56599 -10.54034
 Alpha  occ. eigenvalues --  -10.53539 -10.43839 -10.43031 -10.41490 -10.39688
 Alpha  occ. eigenvalues --   -6.87525  -6.83881  -5.04520  -4.99615  -4.99413
 Alpha  occ. eigenvalues --   -4.99361  -4.95973  -4.95794  -4.95693  -3.39722
 Alpha  occ. eigenvalues --   -3.39590  -3.39481  -1.29240  -1.28743  -1.22050
 Alpha  occ. eigenvalues --   -1.20753  -1.20206  -1.18487  -1.16479  -1.12884
 Alpha  occ. eigenvalues --   -1.11937  -1.09462  -1.08715  -1.08050  -0.91785
 Alpha  occ. eigenvalues --   -0.90831  -0.84779  -0.82885  -0.78088  -0.77184
 Alpha  occ. eigenvalues --   -0.74908  -0.71449  -0.69739  -0.68859  -0.68660
 Alpha  occ. eigenvalues --   -0.68509  -0.67675  -0.67583  -0.67064  -0.64938
 Alpha  occ. eigenvalues --   -0.64309  -0.64095  -0.63513  -0.63364  -0.62917
 Alpha  occ. eigenvalues --   -0.62348  -0.61518  -0.61076  -0.60654  -0.60282
 Alpha  occ. eigenvalues --   -0.59752  -0.58167  -0.57239  -0.56168  -0.55758
 Alpha  occ. eigenvalues --   -0.54914  -0.54617  -0.54255  -0.53758  -0.53072
 Alpha  occ. eigenvalues --   -0.52586  -0.50821  -0.50712  -0.50213  -0.49834
 Alpha  occ. eigenvalues --   -0.48897  -0.47935  -0.47500  -0.46902  -0.46643
 Alpha  occ. eigenvalues --   -0.45112  -0.44798  -0.44246  -0.43691  -0.42686
 Alpha  occ. eigenvalues --   -0.41124  -0.40938
 Alpha virt. eigenvalues --   -0.15134  -0.14486  -0.11966  -0.10663  -0.09489
 Alpha virt. eigenvalues --   -0.09243  -0.08226  -0.07029  -0.06485  -0.06192
 Alpha virt. eigenvalues --   -0.05114  -0.04623  -0.04603  -0.04316  -0.03338
 Alpha virt. eigenvalues --   -0.02415  -0.01960  -0.01469  -0.01229  -0.00107
 Alpha virt. eigenvalues --    0.00017   0.00770   0.01060   0.01351   0.02461
 Alpha virt. eigenvalues --    0.02914   0.03288   0.03572   0.04170   0.04631
 Alpha virt. eigenvalues --    0.05721   0.06130   0.07151   0.08026   0.08850
 Alpha virt. eigenvalues --    0.09469   0.09744   0.10528   0.11112   0.11459
 Alpha virt. eigenvalues --    0.12137   0.12794   0.12949   0.13756   0.14282
 Alpha virt. eigenvalues --    0.14758   0.15146   0.16083   0.16221   0.16471
 Alpha virt. eigenvalues --    0.17248   0.17766   0.18337   0.19130   0.19867
 Alpha virt. eigenvalues --    0.20452   0.20840   0.21565   0.21841   0.22143
 Alpha virt. eigenvalues --    0.22306   0.22838   0.23228   0.23546   0.24130
 Alpha virt. eigenvalues --    0.24601   0.24919   0.25228   0.25703   0.25871
 Alpha virt. eigenvalues --    0.26282   0.26841   0.27644   0.28101   0.28427
 Alpha virt. eigenvalues --    0.28774   0.29070   0.29658   0.29813   0.30228
 Alpha virt. eigenvalues --    0.31134   0.32095   0.32533   0.32574   0.32997
 Alpha virt. eigenvalues --    0.33623   0.34490   0.34656   0.36154   0.36583
 Alpha virt. eigenvalues --    0.36734   0.37842   0.38268   0.38421   0.38828
 Alpha virt. eigenvalues --    0.39229   0.40221   0.40411   0.40635   0.41604
 Alpha virt. eigenvalues --    0.41850   0.42261   0.42944   0.43703   0.44500
 Alpha virt. eigenvalues --    0.44996   0.46130   0.46601   0.47740   0.48489
 Alpha virt. eigenvalues --    0.48778   0.49327   0.50312   0.51154   0.51577
 Alpha virt. eigenvalues --    0.52374   0.52970   0.53528   0.54889   0.56015
 Alpha virt. eigenvalues --    0.56251   0.56691   0.57392   0.58066   0.58725
 Alpha virt. eigenvalues --    0.59558   0.60284   0.60749   0.61351   0.61564
 Alpha virt. eigenvalues --    0.62787   0.63885   0.64614   0.65305   0.66007
 Alpha virt. eigenvalues --    0.66686   0.67146   0.68353   0.68599   0.69329
 Alpha virt. eigenvalues --    0.70095   0.70376   0.71726   0.72718   0.73033
 Alpha virt. eigenvalues --    0.73680   0.74283   0.75102   0.76590   0.78373
 Alpha virt. eigenvalues --    0.78795   0.79350   0.79720   0.81399   0.82401
 Alpha virt. eigenvalues --    0.82524   0.84663   0.85648   0.86519   0.87442
 Alpha virt. eigenvalues --    0.87528   0.88440   0.89346   0.89963   0.90275
 Alpha virt. eigenvalues --    0.90667   0.92722   0.93225   0.94479   0.94901
 Alpha virt. eigenvalues --    0.95357   0.96858   0.97663   0.98375   0.98705
 Alpha virt. eigenvalues --    1.00502   1.02197   1.04505   1.05315   1.06060
 Alpha virt. eigenvalues --    1.07667   1.08285   1.09781   1.10705   1.12503
 Alpha virt. eigenvalues --    1.13230   1.14380   1.14871   1.15979   1.16875
 Alpha virt. eigenvalues --    1.17779   1.18368   1.18733   1.19994   1.21141
 Alpha virt. eigenvalues --    1.21438   1.22220   1.22926   1.23804   1.25220
 Alpha virt. eigenvalues --    1.26027   1.27067   1.28036   1.28535   1.29286
 Alpha virt. eigenvalues --    1.30034   1.30265   1.30897   1.31485   1.31886
 Alpha virt. eigenvalues --    1.32832   1.33595   1.34390   1.34526   1.35468
 Alpha virt. eigenvalues --    1.35982   1.36246   1.37684   1.38969   1.40155
 Alpha virt. eigenvalues --    1.40582   1.41651   1.42257   1.43946   1.44286
 Alpha virt. eigenvalues --    1.45139   1.45941   1.46700   1.47515   1.48091
 Alpha virt. eigenvalues --    1.48195   1.49041   1.49892   1.50547   1.51015
 Alpha virt. eigenvalues --    1.52180   1.53044   1.53442   1.54903   1.54918
 Alpha virt. eigenvalues --    1.55684   1.57535   1.57702   1.58736   1.59537
 Alpha virt. eigenvalues --    1.61182   1.62017   1.63308   1.64509   1.65046
 Alpha virt. eigenvalues --    1.66319   1.67563   1.68684   1.69273   1.69969
 Alpha virt. eigenvalues --    1.70815   1.71521   1.72417   1.72758   1.74553
 Alpha virt. eigenvalues --    1.76330   1.76709   1.77541   1.77951   1.79341
 Alpha virt. eigenvalues --    1.79774   1.80739   1.81663   1.82263   1.83100
 Alpha virt. eigenvalues --    1.83976   1.84568   1.84916   1.85737   1.86211
 Alpha virt. eigenvalues --    1.87174   1.88381   1.89554   1.90140   1.90249
 Alpha virt. eigenvalues --    1.90922   1.91565   1.92124   1.93196   1.93942
 Alpha virt. eigenvalues --    1.94157   1.94275   1.95372   1.95804   1.97548
 Alpha virt. eigenvalues --    1.98353   1.98759   1.98984   2.00190   2.00957
 Alpha virt. eigenvalues --    2.01945   2.02394   2.03693   2.04661   2.06164
 Alpha virt. eigenvalues --    2.06564   2.07217   2.07567   2.09176   2.09656
 Alpha virt. eigenvalues --    2.11195   2.11792   2.11986   2.13016   2.13794
 Alpha virt. eigenvalues --    2.14592   2.14765   2.15468   2.16935   2.17646
 Alpha virt. eigenvalues --    2.18322   2.19299   2.20082   2.20935   2.23020
 Alpha virt. eigenvalues --    2.23176   2.24487   2.25561   2.26466   2.27577
 Alpha virt. eigenvalues --    2.27869   2.29027   2.30153   2.30362   2.31384
 Alpha virt. eigenvalues --    2.31800   2.32953   2.34702   2.35122   2.36481
 Alpha virt. eigenvalues --    2.36789   2.38643   2.39223   2.39568   2.41114
 Alpha virt. eigenvalues --    2.41579   2.43296   2.44715   2.45514   2.47320
 Alpha virt. eigenvalues --    2.48578   2.49542   2.50596   2.51362   2.52440
 Alpha virt. eigenvalues --    2.54077   2.54750   2.55714   2.57409   2.58858
 Alpha virt. eigenvalues --    2.59834   2.61339   2.62281   2.62811   2.63065
 Alpha virt. eigenvalues --    2.65279   2.65882   2.66569   2.68209   2.69264
 Alpha virt. eigenvalues --    2.69733   2.70772   2.71499   2.73493   2.74554
 Alpha virt. eigenvalues --    2.76412   2.76986   2.78954   2.79770   2.80106
 Alpha virt. eigenvalues --    2.80390   2.81307   2.83230   2.84298   2.84967
 Alpha virt. eigenvalues --    2.86857   2.87378   2.87884   2.88722   2.89043
 Alpha virt. eigenvalues --    2.91601   2.92096   2.92521   2.94565   2.95334
 Alpha virt. eigenvalues --    2.96071   2.96660   2.97015   2.97952   2.98773
 Alpha virt. eigenvalues --    2.99251   3.00004   3.00804   3.01202   3.02574
 Alpha virt. eigenvalues --    3.03090   3.05127   3.05315   3.05597   3.06264
 Alpha virt. eigenvalues --    3.07331   3.08302   3.08561   3.09031   3.09609
 Alpha virt. eigenvalues --    3.10640   3.11335   3.13500   3.15053   3.17615
 Alpha virt. eigenvalues --    3.18884   3.19922   3.20677   3.21187   3.21626
 Alpha virt. eigenvalues --    3.22614   3.24219   3.24724   3.25297   3.27229
 Alpha virt. eigenvalues --    3.27981   3.28052   3.29958   3.30295   3.31706
 Alpha virt. eigenvalues --    3.32246   3.33032   3.35055   3.35437   3.36534
 Alpha virt. eigenvalues --    3.39593   3.41298   3.42100   3.42318   3.43332
 Alpha virt. eigenvalues --    3.43969   3.45691   3.48498   3.48711   3.51986
 Alpha virt. eigenvalues --    3.52392   3.52775   3.54136   3.59347   3.60736
 Alpha virt. eigenvalues --    3.64871   3.65631   3.66265   3.66983   3.67592
 Alpha virt. eigenvalues --    3.68052   3.69932   3.71630   3.76982   3.78126
 Alpha virt. eigenvalues --    3.79422   3.80971   3.81601   3.83800   3.86309
 Alpha virt. eigenvalues --    3.88709   3.89562   3.92124   3.93384   3.93584
 Alpha virt. eigenvalues --    3.96006   3.98350   4.00562   4.02671   4.04342
 Alpha virt. eigenvalues --    4.14923   4.15293   4.19731   4.21667   4.27801
 Alpha virt. eigenvalues --    4.28316   4.30667   4.32716   4.34625   4.36020
 Alpha virt. eigenvalues --    4.41193   4.55771   4.56247   4.57951   4.59107
 Alpha virt. eigenvalues --    4.68660   4.68972   4.80495   4.81655   4.84757
 Alpha virt. eigenvalues --    4.86910   4.89856   4.90834   4.93260   4.94353
 Alpha virt. eigenvalues --    4.95754   4.97373   4.98776   4.99835   5.00313
 Alpha virt. eigenvalues --    5.01094   5.01430   5.02004   5.02467   5.03684
 Alpha virt. eigenvalues --    5.03934   5.05286   5.05618   5.05984   5.06465
 Alpha virt. eigenvalues --    5.06704   5.07298   5.07568   5.08472   5.08929
 Alpha virt. eigenvalues --    5.09858   5.10939   5.11511   5.12362   5.12455
 Alpha virt. eigenvalues --    5.13568   5.14365   5.16204   5.17131   5.17734
 Alpha virt. eigenvalues --    5.18505   5.19457   5.20539   5.22509   5.23301
 Alpha virt. eigenvalues --    5.23636   5.23920   5.24115   5.24745   5.25054
 Alpha virt. eigenvalues --    5.26410   5.26785   5.28008   5.28323   5.29209
 Alpha virt. eigenvalues --    5.31299   5.32527   5.32978   5.34932   5.35423
 Alpha virt. eigenvalues --    5.37897   5.38281   5.38475   5.39704   5.41148
 Alpha virt. eigenvalues --    5.42312   5.43717   5.44365   5.44902   5.45405
 Alpha virt. eigenvalues --    5.46955   5.51431   5.52455   5.57692   5.58796
 Alpha virt. eigenvalues --    5.59413   5.63842   5.66735   5.72034   5.73448
 Alpha virt. eigenvalues --    5.76993   5.77100   5.77704   5.82627   5.99784
 Alpha virt. eigenvalues --    6.00385   6.05517   6.05902   6.06190   6.07571
 Alpha virt. eigenvalues --    6.15836   6.20002   6.20362   6.25103   6.26018
 Alpha virt. eigenvalues --    6.29396   6.31778   6.33875   6.34954   6.35771
 Alpha virt. eigenvalues --    6.36229   6.40088   6.41584   6.43012   6.44332
 Alpha virt. eigenvalues --    6.44797   6.45866   6.45995   6.48538   6.49284
 Alpha virt. eigenvalues --    6.49855   6.52380   6.53472   6.54436   6.55300
 Alpha virt. eigenvalues --    6.56083   6.56323   6.57848   6.58668   6.58924
 Alpha virt. eigenvalues --    6.59784   6.60804   6.62037   6.63945   6.65977
 Alpha virt. eigenvalues --    6.66570   6.67487   6.69098   6.70549   6.71233
 Alpha virt. eigenvalues --    6.72015   6.73353   6.74898   6.76591   6.78230
 Alpha virt. eigenvalues --    6.79108   6.80344   6.81216   6.86072   6.87238
 Alpha virt. eigenvalues --    6.88962   6.90502   6.93280   6.94542   7.00578
 Alpha virt. eigenvalues --    7.01557   7.03927   7.07156   7.08258   7.15864
 Alpha virt. eigenvalues --    7.16320   7.16817   7.76491   7.78407   7.94546
 Alpha virt. eigenvalues --    8.00058   8.15337   8.19737  16.63031  16.69133
 Alpha virt. eigenvalues --   22.25951  22.26416  22.33403  22.35838  23.11320
 Alpha virt. eigenvalues --   23.14194  32.22678  32.25736  43.43792  43.54241
 Alpha virt. eigenvalues --   43.61607  43.66706  43.66860  43.72146  43.74020
 Alpha virt. eigenvalues --   43.80270  43.81478  43.88760
  Beta  occ. eigenvalues -- -347.65837 -77.47083 -77.43432 -42.56369 -37.45095
  Beta  occ. eigenvalues --  -37.45006 -37.44946 -19.41215 -19.40741 -19.37090
  Beta  occ. eigenvalues --  -19.36784 -19.36577 -19.33844 -19.33778 -19.31563
  Beta  occ. eigenvalues --  -19.29556 -19.27790 -14.57269 -14.56599 -10.54034
  Beta  occ. eigenvalues --  -10.53539 -10.43839 -10.43031 -10.41490 -10.39688
  Beta  occ. eigenvalues --   -6.87525  -6.83881  -5.04520  -4.99615  -4.99413
  Beta  occ. eigenvalues --   -4.99361  -4.95973  -4.95794  -4.95693  -3.39722
  Beta  occ. eigenvalues --   -3.39590  -3.39481  -1.29240  -1.28743  -1.22050
  Beta  occ. eigenvalues --   -1.20753  -1.20206  -1.18487  -1.16479  -1.12884
  Beta  occ. eigenvalues --   -1.11937  -1.09462  -1.08715  -1.08050  -0.91785
  Beta  occ. eigenvalues --   -0.90831  -0.84779  -0.82885  -0.78088  -0.77184
  Beta  occ. eigenvalues --   -0.74908  -0.71449  -0.69739  -0.68859  -0.68660
  Beta  occ. eigenvalues --   -0.68509  -0.67675  -0.67583  -0.67064  -0.64938
  Beta  occ. eigenvalues --   -0.64309  -0.64095  -0.63513  -0.63364  -0.62917
  Beta  occ. eigenvalues --   -0.62348  -0.61518  -0.61076  -0.60654  -0.60282
  Beta  occ. eigenvalues --   -0.59752  -0.58167  -0.57239  -0.56168  -0.55758
  Beta  occ. eigenvalues --   -0.54914  -0.54617  -0.54255  -0.53758  -0.53072
  Beta  occ. eigenvalues --   -0.52586  -0.50821  -0.50712  -0.50213  -0.49834
  Beta  occ. eigenvalues --   -0.48897  -0.47935  -0.47500  -0.46902  -0.46643
  Beta  occ. eigenvalues --   -0.45112  -0.44798  -0.44246  -0.43691  -0.42686
  Beta  occ. eigenvalues --   -0.41124  -0.40938
  Beta virt. eigenvalues --   -0.15134  -0.14486  -0.11966  -0.10663  -0.09489
  Beta virt. eigenvalues --   -0.09243  -0.08226  -0.07029  -0.06485  -0.06192
  Beta virt. eigenvalues --   -0.05114  -0.04623  -0.04603  -0.04316  -0.03338
  Beta virt. eigenvalues --   -0.02415  -0.01960  -0.01469  -0.01229  -0.00107
  Beta virt. eigenvalues --    0.00017   0.00770   0.01060   0.01351   0.02461
  Beta virt. eigenvalues --    0.02914   0.03288   0.03572   0.04170   0.04631
  Beta virt. eigenvalues --    0.05721   0.06130   0.07151   0.08026   0.08850
  Beta virt. eigenvalues --    0.09469   0.09744   0.10528   0.11112   0.11459
  Beta virt. eigenvalues --    0.12137   0.12794   0.12949   0.13756   0.14282
  Beta virt. eigenvalues --    0.14758   0.15146   0.16083   0.16221   0.16471
  Beta virt. eigenvalues --    0.17248   0.17766   0.18337   0.19130   0.19867
  Beta virt. eigenvalues --    0.20452   0.20840   0.21565   0.21841   0.22143
  Beta virt. eigenvalues --    0.22306   0.22838   0.23228   0.23546   0.24130
  Beta virt. eigenvalues --    0.24601   0.24919   0.25228   0.25703   0.25871
  Beta virt. eigenvalues --    0.26282   0.26841   0.27644   0.28101   0.28427
  Beta virt. eigenvalues --    0.28774   0.29070   0.29658   0.29813   0.30228
  Beta virt. eigenvalues --    0.31134   0.32095   0.32533   0.32574   0.32997
  Beta virt. eigenvalues --    0.33623   0.34490   0.34656   0.36154   0.36583
  Beta virt. eigenvalues --    0.36734   0.37842   0.38268   0.38421   0.38828
  Beta virt. eigenvalues --    0.39229   0.40221   0.40411   0.40635   0.41604
  Beta virt. eigenvalues --    0.41850   0.42261   0.42944   0.43703   0.44500
  Beta virt. eigenvalues --    0.44996   0.46130   0.46601   0.47740   0.48489
  Beta virt. eigenvalues --    0.48778   0.49327   0.50312   0.51154   0.51577
  Beta virt. eigenvalues --    0.52374   0.52970   0.53528   0.54889   0.56015
  Beta virt. eigenvalues --    0.56251   0.56691   0.57392   0.58066   0.58725
  Beta virt. eigenvalues --    0.59558   0.60284   0.60749   0.61351   0.61564
  Beta virt. eigenvalues --    0.62787   0.63885   0.64614   0.65305   0.66007
  Beta virt. eigenvalues --    0.66686   0.67146   0.68353   0.68599   0.69329
  Beta virt. eigenvalues --    0.70095   0.70376   0.71726   0.72718   0.73033
  Beta virt. eigenvalues --    0.73680   0.74283   0.75102   0.76590   0.78373
  Beta virt. eigenvalues --    0.78795   0.79350   0.79720   0.81399   0.82401
  Beta virt. eigenvalues --    0.82524   0.84663   0.85648   0.86519   0.87442
  Beta virt. eigenvalues --    0.87528   0.88440   0.89346   0.89963   0.90275
  Beta virt. eigenvalues --    0.90667   0.92722   0.93225   0.94479   0.94901
  Beta virt. eigenvalues --    0.95357   0.96858   0.97663   0.98375   0.98705
  Beta virt. eigenvalues --    1.00502   1.02197   1.04505   1.05315   1.06060
  Beta virt. eigenvalues --    1.07667   1.08285   1.09781   1.10705   1.12503
  Beta virt. eigenvalues --    1.13230   1.14380   1.14871   1.15979   1.16875
  Beta virt. eigenvalues --    1.17779   1.18368   1.18733   1.19994   1.21141
  Beta virt. eigenvalues --    1.21438   1.22220   1.22926   1.23804   1.25220
  Beta virt. eigenvalues --    1.26027   1.27067   1.28036   1.28535   1.29286
  Beta virt. eigenvalues --    1.30034   1.30265   1.30897   1.31485   1.31886
  Beta virt. eigenvalues --    1.32832   1.33595   1.34390   1.34526   1.35468
  Beta virt. eigenvalues --    1.35982   1.36246   1.37684   1.38969   1.40155
  Beta virt. eigenvalues --    1.40582   1.41651   1.42257   1.43946   1.44286
  Beta virt. eigenvalues --    1.45139   1.45941   1.46700   1.47515   1.48091
  Beta virt. eigenvalues --    1.48195   1.49041   1.49892   1.50547   1.51015
  Beta virt. eigenvalues --    1.52180   1.53044   1.53442   1.54903   1.54918
  Beta virt. eigenvalues --    1.55684   1.57535   1.57702   1.58736   1.59537
  Beta virt. eigenvalues --    1.61182   1.62017   1.63308   1.64509   1.65046
  Beta virt. eigenvalues --    1.66319   1.67563   1.68684   1.69273   1.69969
  Beta virt. eigenvalues --    1.70815   1.71521   1.72417   1.72758   1.74553
  Beta virt. eigenvalues --    1.76330   1.76709   1.77541   1.77951   1.79341
  Beta virt. eigenvalues --    1.79774   1.80739   1.81663   1.82263   1.83100
  Beta virt. eigenvalues --    1.83976   1.84568   1.84916   1.85737   1.86211
  Beta virt. eigenvalues --    1.87174   1.88381   1.89554   1.90140   1.90249
  Beta virt. eigenvalues --    1.90922   1.91565   1.92124   1.93196   1.93942
  Beta virt. eigenvalues --    1.94157   1.94275   1.95372   1.95804   1.97548
  Beta virt. eigenvalues --    1.98353   1.98759   1.98984   2.00190   2.00957
  Beta virt. eigenvalues --    2.01945   2.02394   2.03693   2.04661   2.06164
  Beta virt. eigenvalues --    2.06564   2.07217   2.07567   2.09176   2.09656
  Beta virt. eigenvalues --    2.11195   2.11792   2.11986   2.13016   2.13794
  Beta virt. eigenvalues --    2.14592   2.14765   2.15468   2.16935   2.17646
  Beta virt. eigenvalues --    2.18322   2.19299   2.20082   2.20935   2.23020
  Beta virt. eigenvalues --    2.23176   2.24487   2.25561   2.26466   2.27577
  Beta virt. eigenvalues --    2.27869   2.29027   2.30153   2.30362   2.31384
  Beta virt. eigenvalues --    2.31800   2.32953   2.34702   2.35122   2.36481
  Beta virt. eigenvalues --    2.36789   2.38643   2.39223   2.39568   2.41114
  Beta virt. eigenvalues --    2.41579   2.43296   2.44715   2.45514   2.47320
  Beta virt. eigenvalues --    2.48578   2.49542   2.50596   2.51362   2.52440
  Beta virt. eigenvalues --    2.54077   2.54750   2.55714   2.57409   2.58858
  Beta virt. eigenvalues --    2.59834   2.61339   2.62281   2.62811   2.63065
  Beta virt. eigenvalues --    2.65279   2.65882   2.66569   2.68209   2.69264
  Beta virt. eigenvalues --    2.69733   2.70772   2.71499   2.73493   2.74554
  Beta virt. eigenvalues --    2.76412   2.76986   2.78954   2.79770   2.80106
  Beta virt. eigenvalues --    2.80390   2.81307   2.83230   2.84298   2.84967
  Beta virt. eigenvalues --    2.86857   2.87378   2.87884   2.88722   2.89043
  Beta virt. eigenvalues --    2.91601   2.92096   2.92521   2.94565   2.95334
  Beta virt. eigenvalues --    2.96071   2.96660   2.97015   2.97952   2.98773
  Beta virt. eigenvalues --    2.99251   3.00004   3.00804   3.01202   3.02574
  Beta virt. eigenvalues --    3.03090   3.05127   3.05315   3.05597   3.06264
  Beta virt. eigenvalues --    3.07331   3.08302   3.08561   3.09031   3.09609
  Beta virt. eigenvalues --    3.10640   3.11335   3.13500   3.15053   3.17615
  Beta virt. eigenvalues --    3.18884   3.19922   3.20677   3.21187   3.21626
  Beta virt. eigenvalues --    3.22614   3.24219   3.24724   3.25297   3.27229
  Beta virt. eigenvalues --    3.27981   3.28052   3.29958   3.30295   3.31706
  Beta virt. eigenvalues --    3.32246   3.33032   3.35055   3.35437   3.36534
  Beta virt. eigenvalues --    3.39593   3.41298   3.42100   3.42318   3.43332
  Beta virt. eigenvalues --    3.43969   3.45691   3.48498   3.48711   3.51986
  Beta virt. eigenvalues --    3.52392   3.52775   3.54136   3.59347   3.60736
  Beta virt. eigenvalues --    3.64871   3.65631   3.66265   3.66983   3.67592
  Beta virt. eigenvalues --    3.68052   3.69932   3.71630   3.76982   3.78126
  Beta virt. eigenvalues --    3.79422   3.80971   3.81601   3.83800   3.86309
  Beta virt. eigenvalues --    3.88709   3.89562   3.92124   3.93384   3.93584
  Beta virt. eigenvalues --    3.96006   3.98350   4.00562   4.02671   4.04342
  Beta virt. eigenvalues --    4.14923   4.15293   4.19731   4.21667   4.27801
  Beta virt. eigenvalues --    4.28316   4.30667   4.32716   4.34625   4.36020
  Beta virt. eigenvalues --    4.41193   4.55771   4.56247   4.57951   4.59107
  Beta virt. eigenvalues --    4.68660   4.68972   4.80495   4.81655   4.84757
  Beta virt. eigenvalues --    4.86910   4.89856   4.90834   4.93260   4.94353
  Beta virt. eigenvalues --    4.95754   4.97373   4.98776   4.99835   5.00313
  Beta virt. eigenvalues --    5.01094   5.01430   5.02004   5.02467   5.03684
  Beta virt. eigenvalues --    5.03934   5.05286   5.05618   5.05984   5.06465
  Beta virt. eigenvalues --    5.06704   5.07298   5.07568   5.08472   5.08929
  Beta virt. eigenvalues --    5.09858   5.10939   5.11511   5.12362   5.12455
  Beta virt. eigenvalues --    5.13568   5.14365   5.16204   5.17131   5.17734
  Beta virt. eigenvalues --    5.18505   5.19457   5.20539   5.22509   5.23301
  Beta virt. eigenvalues --    5.23636   5.23920   5.24115   5.24745   5.25054
  Beta virt. eigenvalues --    5.26410   5.26785   5.28008   5.28323   5.29209
  Beta virt. eigenvalues --    5.31299   5.32527   5.32978   5.34932   5.35423
  Beta virt. eigenvalues --    5.37897   5.38281   5.38475   5.39704   5.41148
  Beta virt. eigenvalues --    5.42312   5.43717   5.44365   5.44902   5.45405
  Beta virt. eigenvalues --    5.46955   5.51431   5.52455   5.57692   5.58796
  Beta virt. eigenvalues --    5.59413   5.63842   5.66735   5.72034   5.73448
  Beta virt. eigenvalues --    5.76993   5.77100   5.77704   5.82627   5.99784
  Beta virt. eigenvalues --    6.00385   6.05517   6.05902   6.06190   6.07571
  Beta virt. eigenvalues --    6.15836   6.20002   6.20362   6.25103   6.26018
  Beta virt. eigenvalues --    6.29396   6.31778   6.33875   6.34954   6.35771
  Beta virt. eigenvalues --    6.36229   6.40088   6.41584   6.43012   6.44332
  Beta virt. eigenvalues --    6.44797   6.45866   6.45995   6.48538   6.49284
  Beta virt. eigenvalues --    6.49855   6.52380   6.53472   6.54436   6.55300
  Beta virt. eigenvalues --    6.56083   6.56323   6.57848   6.58668   6.58924
  Beta virt. eigenvalues --    6.59784   6.60804   6.62037   6.63945   6.65977
  Beta virt. eigenvalues --    6.66570   6.67487   6.69098   6.70549   6.71233
  Beta virt. eigenvalues --    6.72015   6.73353   6.74898   6.76591   6.78230
  Beta virt. eigenvalues --    6.79108   6.80344   6.81216   6.86072   6.87238
  Beta virt. eigenvalues --    6.88962   6.90502   6.93280   6.94542   7.00578
  Beta virt. eigenvalues --    7.01557   7.03927   7.07156   7.08258   7.15864
  Beta virt. eigenvalues --    7.16320   7.16817   7.76491   7.78407   7.94546
  Beta virt. eigenvalues --    8.00058   8.15337   8.19737  16.63031  16.69133
  Beta virt. eigenvalues --   22.25951  22.26416  22.33403  22.35838  23.11320
  Beta virt. eigenvalues --   23.14194  32.22678  32.25736  43.43792  43.54241
  Beta virt. eigenvalues --   43.61607  43.66706  43.66860  43.72146  43.74020
  Beta virt. eigenvalues --   43.80270  43.81478  43.88760
          Condensed to atoms (all electrons):
               1          2          3          4          5          6
     1  C    4.607368   0.234225  -0.032309   0.361359   0.401446   0.003709
     2  C    0.234225   5.135448   0.153684  -0.096001  -0.033346  -0.027607
     3  N   -0.032309   0.153684   6.755884   0.003622  -0.043755   0.144437
     4  O    0.361359  -0.096001   0.003622   7.904547  -0.070590  -0.000128
     5  O    0.401446  -0.033346  -0.043755  -0.070590   8.067190   0.003337
     6  C    0.003709  -0.027607   0.144437  -0.000128   0.003337   5.159754
     7  P    0.000848  -0.002181  -0.024780   0.000114   0.000458   0.281570
     8  O    0.000058  -0.000419   0.001656   0.000000  -0.000008  -0.018935
     9  O    0.005969   0.007063  -0.021881  -0.000068  -0.018056  -0.044487
    10  O    0.001513  -0.009569   0.000050  -0.000020  -0.000044  -0.028569
[...]
 -0.00078097,-0.09298602,0.09690503,-0.17814779,0.01333109,-0.01331417,
 0.01146015,0.00188027,0.00108861,0.00047587,0.00002335,-0.00043753,-0.
 00088074,-0.00032511,0.00033086,0.00049208,0.00008122,-0.00002721,0.00
 021865,-0.00001098,0.00010349,0.00013316,0.00003885,-0.00016965,0.0004
 1623,-0.00616377,0.00481877,-0.00794795,0.09697240,-0.09951691,0.18858
 927,-0.00126021,-0.00012655,-0.00052398,0.00026057,0.00006193,-0.00010
 107,-0.00017515,-0.00012871,0.00011195,0.00051810,0.00026818,-0.000014
 69,0.00092390,0.00005272,0.00115905,0.00002218,-0.00003626,0.00013043,
 0.00006940,0.00103011,-0.00075834,-0.00058045,-0.00055551,0.00018134,0
 .00001320,-0.00076770,0.00118713,0.00005172,-0.00018897,0.00012008,0.0
 0086759,0.00002522,-0.00002740,0.00277744,0.00258116,-0.00545766,-0.00
 009299,-0.00013372,0.00001207,0.00008438,-0.00001680,0.00002197,-0.000
 03494,-0.00004138,0.00003920,-0.00004073,-0.00003160,0.00003681,0.0000
 6792,-0.00000383,0.00006752,-0.00001625,0.00000237,0.00003062,-0.00113
 445,-0.00046964,-0.00033960,0.00003514,0.00038469,0.00007198,-0.000093
 01,-0.00126076,-0.00014463,-0.01318662,-0.00865782,0.02815852,-0.04295
 578,-0.01433425,0.06005943,-0.00202713,-0.00527091,0.00444678,-0.00036
 915,-0.00156590,-0.00063976,-0.00021294,0.00207164,-0.00183379,-0.0007
 6608,0.00116897,-0.00004520,0.00057687,0.00040190,-0.00027883,0.000021
 12,0.00013128,-0.00005434,-0.00325978,0.00298111,0.00260002,0.00169656
 ,-0.00085619,-0.00041396,0.05801788,-0.00037156,-0.00000812,-0.0001146
 0,0.00012854,0.00005419,-0.00001037,-0.00006349,-0.00003459,0.00000100
 ,0.00012362,0.00002785,0.00001730,0.00034141,-0.00021170,0.00039879,-0
 .00004057,0.00007554,-0.00005033,0.00013077,-0.00062800,0.00043237,0.0
 0047647,0.00031541,-0.00010709,-0.00030325,0.00024084,-0.00045319,-0.0
 0005618,0.00010462,-0.00006797,-0.00080303,-0.00008882,0.00009622,0.00
 082897,0.00067978,-0.00027935,-0.00006803,0.00000169,-0.00001602,0.000
 02274,-0.00001134,0.00001041,-0.00000717,-0.00002077,0.00001391,-0.000
 00668,-0.00000982,0.00002359,-0.00000217,-0.00002525,-0.00001703,-0.00
 000003,-0.00000995,-0.00001834,0.00279121,0.00076819,-0.00066496,-0.00
 012277,-0.00115737,-0.00065395,-0.00073815,-0.00059799,-0.00024797,0.0
 0592822,0.00600588,-0.01892070,-0.02589517,-0.10063362,0.12147073,-0.0
 0605945,-0.01916133,0.03204706,-0.00171199,-0.00357419,-0.00465625,0.0
 0025866,0.00148782,-0.00024621,0.00141867,-0.00139424,0.00124393,-0.00
 081656,-0.00006671,0.00121160,0.00007614,-0.00016410,0.00004021,0.0011
 2966,-0.00127156,-0.00118265,0.00089781,0.00048279,-0.00047038,0.02223
 828,0.11682030,-0.00087839,-0.00010450,-0.00027113,0.00006787,0.000009
 84,0.00000737,0.00004795,-0.00008331,0.00007424,0.00047752,0.00026342,
 -0.00010024,0.00068999,0.00005658,0.00031397,0.00000289,0.00005057,0.0
 0003095,-0.00026102,0.00048560,-0.00030375,-0.00004739,-0.00021342,0.0
 0004514,0.00029762,-0.00047284,0.00014971,0.00020108,-0.00011594,-0.00
 001487,0.00007722,0.00002773,-0.00000562,0.00020862,0.00177470,-0.0040
 0306,-0.00005576,-0.00007038,0.00009651,0.00001204,-0.00000635,-0.0000
 1491,-0.00000743,-0.00001517,0.00001931,-0.00001317,-0.00001307,0.0000
 1819,0.00001314,-0.00000208,0.00001175,0.00000349,-0.00001161,0.000013
 64,0.00210669,-0.00018798,-0.00125464,-0.00032062,-0.00012291,-0.00023
 645,-0.00029003,-0.00034683,0.00021320,-0.00233156,0.00422255,-0.00982
 642,0.09468280,0.13080637,-0.35802265,-0.00389539,-0.00478189,0.004986
 26,-0.00107043,-0.00068772,-0.00099185,0.00002474,0.00100544,-0.000222
 06,0.00023697,-0.00010068,0.00030587,-0.00013391,-0.00008580,0.0004669
 3,0.00008027,-0.00015519,0.00003229,-0.00053654,-0.00106461,0.00036113
 ,-0.00072683,-0.00008681,0.00227666,-0.08842833,-0.12894538,0.36466338
 ,0.00021178,0.00007633,0.00004429,0.00001303,0.00001603,-0.00000564,-0
 .00003075,-0.00000037,-0.00002762,-0.00011280,-0.00008324,0.00003807,-
 0.00019799,-0.00008897,-0.00005608,-0.00001509,0.00004269,-0.00005156,
 0.00047582,-0.00064220,0.00050210,0.00005893,0.00021327,-0.00005998,-0
 .00068117,0.00009212,-0.00053443,-0.00019037,0.00012224,0.00000072,-0.
 00012249,-0.00008368,0.00003292,0.00049984,0.00009575,0.00083625,0.000
 01334,0.00002439,-0.00002278,-0.00001056,0.00000045,0.00000822,0.00000
 161,-0.00000182,-0.00000365,0.00000880,0.00000326,0.00000251,-0.000004
 39,-0.00000917,-0.00000821,-0.00000084,-0.00001094,-0.00002107,-0.0003
 0157,-0.00003544,-0.00023383,0.00005133,-0.00008615,-0.00003906,0.0001
 9312,0.00001556,0.00013553,0.00161651,0.00060462,0.00166862,-0.0009997
 9,-0.00385477,-0.00088516,-0.25962777,-0.03701443,-0.09760342,-0.00287
 003,-0.00073780,0.00129733,0.00076878,0.00068533,0.00095448,0.00044156
 ,0.00042231,-0.00060046,0.00079178,-0.00019284,0.00084503,-0.00000557,
 0.00001567,0.00001368,0.00033340,-0.00005400,-0.00015125,0.00034363,-0
 .00037134,-0.00066341,-0.00050015,-0.00045607,-0.00021078,0.27606491,0
 .00048059,-0.00009337,0.00029103,-0.00009510,-0.00004824,0.00003234,0.
 00007807,0.00014872,-0.00001913,-0.00025313,-0.00008119,-0.00001655,-0
 .00068425,-0.00013494,-0.00029316,0.00001625,-0.00011623,0.00001510,-0
 .00059909,0.00008493,-0.00018615,0.00027294,0.00006982,0.00003081,0.00
 055015,0.00055845,0.00031804,0.00017455,-0.00003037,-0.00003044,-0.000
 37020,0.00015247,-0.00013119,0.00113457,-0.00241746,0.00200112,0.00003
 262,0.00002679,-0.00002733,-0.00001346,-0.00001850,0.00000885,0.000011
 89,0.00002269,-0.00001451,0.00000190,0.00000689,-0.00002049,-0.0000590
 2,0.00002410,-0.00003678,0.00000868,0.00004391,0.00000736,-0.00073880,
 0.00009349,-0.00063592,0.00026422,-0.00021376,-0.00006665,0.00094160,-
 0.00048200,-0.00055434,-0.00360533,0.00291845,0.00151877,-0.03238906,-
 0.02070860,-0.01606536,-0.02809956,-0.05076113,-0.01372078,0.00967951,
 0.00478045,-0.00235035,0.00099232,0.00149196,0.00346847,-0.00098448,-0
 .00240727,0.00066086,-0.00078026,-0.00021242,-0.00019961,-0.00002378,-
 0.00000293,0.00006956,0.00050452,0.00021777,-0.00040785,-0.00006109,-0
 .00023945,0.00033515,-0.00008587,0.00075803,-0.00088415,0.04426818,0.0
 6392812,0.00001007,0.00003326,-0.00003565,0.00002898,0.00003760,-0.000
 04039,-0.00012144,-0.00004133,0.00000236,-0.00001644,-0.00003027,0.000
 02365,-0.00000533,-0.00003669,0.00002240,-0.00000201,-0.00002316,0.000
 05291,0.00013209,0.00012856,-0.00035740,-0.00006325,-0.00001304,0.0000
 6182,0.00033635,0.00014041,0.00054085,-0.00001903,-0.00000529,0.000038
 62,0.00011737,-0.00003688,-0.00002080,0.00053679,0.00086103,-0.0006448
 0,-0.00000041,0.00000686,-0.00000236,0.00004565,0.00003123,0.00002165,
 -0.00001182,-0.00000926,0.00000696,-0.00000872,-0.00000755,0.00000339,
 0.00008530,-0.00001591,0.00005935,-0.00002618,-0.00001123,0.00001891,-
 0.00054054,-0.00009642,-0.00085225,0.00014883,0.00003962,0.00009031,0.
 00062380,-0.00021796,0.00032629,-0.00056433,0.00005927,0.00041369,0.00
 009753,-0.00167754,0.00085937,-0.10423894,-0.01871289,-0.08971645,-0.0
 2124489,-0.00570165,-0.00475413,-0.00117232,-0.00096894,-0.00607495,0.
 00109605,0.00307309,-0.00097879,0.00148209,-0.00066179,0.00226271,-0.0
 0001593,-0.00000932,0.00000636,0.00005774,-0.00065841,-0.00056458,-0.0
 0007163,-0.00015147,-0.00015230,0.00092935,0.00011406,0.00033129,0.105
 26877,0.02054544,0.09027708,-0.00006685,-0.00011421,0.00002789,-0.0000
 4002,-0.00001633,-0.00000740,-0.00004014,0.00005043,0.00005949,0.00003
 983,0.00006006,-0.00003845,0.00000200,0.00011160,0.00001280,0.00010226
 ,-0.00015794,0.00011380,-0.00090500,0.00096767,-0.00112641,-0.00018865
 ,-0.00033844,0.00030283,0.00020790,-0.00018351,0.00125184,0.00027257,-
 0.00014420,0.00005736,0.00056177,0.00016102,-0.00013810,0.00086330,-0.
 00036356,-0.00026597,-0.00000088,-0.00002510,0.00001248,0.00005067,0.0
 0000770,0.00000984,-0.00000368,0.00000563,0.00000281,-0.00001587,-0.00
 000657,-0.00001017,0.00000546,0.00001107,0.00002683,-0.00001185,0.0000
 4571,0.00006439,0.00040265,0.00005699,-0.00016917,-0.00004476,-0.00010
 509,-0.00013167,-0.00005357,-0.00004808,0.00002658,0.00011319,-0.00137
 604,0.00034108,0.00596923,-0.00477152,-0.00593295,-0.18353134,0.074334
 58,0.11724079,0.00079700,-0.00116403,-0.00063637,-0.00134115,0.0000108
 8,-0.00068128,0.00003270,-0.00022822,-0.00059874,0.00082444,0.00033204
 ,0.00016411,0.00001191,-0.00003584,-0.00001764,0.00019770,0.00012669,-
 0.00023134,0.00013570,-0.00019481,-0.00016077,0.00070761,0.00070524,-0
 .00000068,-0.01631369,0.00938110,0.01708768,0.19114787,-0.00002545,-0.
 00005464,-0.00000065,-0.00000541,-0.00001916,0.00001229,0.00005106,0.0
 0001783,-0.00001401,0.00000715,0.00002356,-0.00001168,-0.00006057,0.00
 003097,0.00006018,0.00001268,-0.00010317,0.00008003,-0.00006451,0.0009
 6675,-0.00007590,-0.00012605,-0.00035526,-0.00017738,0.00060156,-0.000
 32031,0.00046723,0.00011702,-0.00016693,-0.00000910,0.00004216,-0.0000
 2919,0.00033272,0.00051038,-0.00073411,-0.00004950,-0.00000064,-0.0000
 1590,-0.00000811,0.00000568,-0.00002551,0.00000041,0.00000407,0.000004
 35,-0.00000008,-0.00000327,0.00000132,-0.00000282,-0.00001005,0.000024
 52,-0.00000237,0.00000775,0.00002294,0.00000983,0.00184319,-0.00021108
 ,0.00088944,-0.00009007,-0.00059423,-0.00075728,-0.00057549,0.00002523
 ,-0.00026217,-0.00244813,-0.00525023,-0.00058446,0.02333187,-0.0196611
 2,-0.02217874,0.06364879,-0.07896295,-0.05505035,-0.00869892,0.0063833
 7,0.00267868,0.00208376,0.00027261,0.00108331,0.00046876,-0.00074878,-
 0.00047787,-0.00166734,-0.00282746,0.00266054,0.00007088,-0.00003494,-
 0.00005039,-0.00026306,-0.00019185,0.00003714,0.00036037,-0.00042556,-
 0.00035489,0.00117511,0.00116397,-0.00018818,-0.00300887,0.00264894,0.
 00370839,-0.07719304,0.09881942,-0.00006997,-0.00014082,0.00005730,-0.
 00005794,-0.00001302,-0.00000806,-0.00006015,0.00008669,0.00006924,0.0
 0005483,0.00007176,-0.00005795,0.00001353,0.00014390,-0.00001345,0.000
 02566,-0.00014393,0.00008520,-0.00131988,0.00057170,-0.00128307,0.0004
 2426,-0.00004735,0.00026436,0.00177828,0.00039332,0.00148876,0.0004961
 4,-0.00016164,0.00001042,-0.00051828,0.00029755,-0.00038347,0.00075873
 ,-0.00102157,-0.00096834,-0.00000124,-0.00002264,0.00002235,0.00007263
 ,0.00002165,0.00001379,-0.00000492,0.00000789,0.00000517,-0.00002292,-
 0.00001179,-0.00001254,0.00003227,-0.00000062,0.00004212,-0.00002124,0
 .00003496,0.00005580,0.00006618,0.00015938,0.00011802,-0.00006332,0.00
 004251,0.00003751,-0.00012456,-0.00000657,-0.00002732,-0.00029290,0.00
 073530,0.00109156,0.00003101,0.00142319,-0.00055323,0.12173938,-0.0681
 3537,-0.14502790,0.01759959,-0.01064528,-0.01154951,-0.00385026,0.0007
 3146,-0.00174554,-0.00111726,-0.00096999,0.00328983,0.00165674,0.00365
 930,-0.00277292,0.00000866,0.00002489,0.00001706,-0.00014537,0.0000318
 2,-0.00005674,-0.00008869,-0.00023945,-0.00010677,-0.00025835,-0.00012
 103,0.00079089,-0.01039733,0.00612721,0.00879029,-0.12662670,0.0674999
 2,0.14916259,0.00047406,0.00045443,-0.00021242,-0.00008022,-0.00008026
 ,-0.00000768,-0.00036003,0.00011366,0.00009182,-0.00029873,-0.00026137
 ,0.00020271,-0.00025396,-0.00028957,-0.00001452,-0.00252176,-0.0006595
 5,0.00013246,-0.01887338,0.02760592,0.02394881,0.00547445,-0.00067926,
 -0.00248956,-0.00047120,-0.00189776,-0.00179126,-0.04472617,0.06842474
 ,0.05957265,-0.00295354,-0.00013594,-0.00064121,-0.00039071,0.00082393
 ,0.00035456,0.00005907,0.00004887,-0.00005913,0.00002895,0.00010190,-0
 .00002750,0.00008059,-0.00006557,-0.00003189,0.00015712,0.00019810,0.0
 0004600,0.00028550,0.00037089,0.00066720,0.00020739,-0.00009261,0.0000
 1449,-0.00019507,0.00018511,0.00007978,0.00012806,-0.00014977,-0.00009
 594,0.00013308,-0.00014496,-0.00002967,-0.00009228,0.00005108,0.000055
 72,0.00014410,-0.00015512,0.00003894,0.00001483,0.00000110,-0.00001499
 ,-0.00091455,0.00118497,0.00025675,0.00021414,-0.00036755,-0.00019551,
 0.00188251,-0.00070285,0.00001327,0.00050068,-0.00016617,-0.00017734,-
 0.00001631,0.00004386,0.00002637,-0.00000814,0.00001326,-0.00001115,0.
 00001329,-0.00001579,-0.00000720,-0.00001130,0.00000182,-0.00002539,0.
 00002279,-0.00003025,0.00000484,-0.00005857,0.00002155,-0.00006892,0.0
 6254300,-0.00005778,-0.00019601,-0.00006464,-0.00019376,-0.00007833,0.
 00004575,-0.00022546,0.00030246,0.00049168,0.00003537,0.00015085,-0.00
 000875,0.00001482,0.00017326,0.00003542,-0.00167006,0.00162284,0.00131
 129,0.00219556,0.00016769,-0.00381623,-0.00232779,-0.00362366,0.000632
 91,-0.00185001,0.00119534,0.00084547,0.09724953,-0.30389548,-0.2432524
 5,0.00022495,-0.00011696,0.00017349,0.00084764,-0.00050150,-0.00027422
 ,0.00000253,-0.00010016,0.00000712,0.00009063,0.00016304,-0.00000156,0
 .00003040,-0.00000928,-0.00000446,0.00008167,-0.00010883,-0.00013190,-
 0.00010405,0.00011075,0.00026062,-0.00013367,0.00010780,-0.00021805,0.
 00028632,-0.00008751,0.00001203,-0.00014330,0.00010870,0.00006259,-0.0
 0023598,0.00006410,-0.00002032,0.00002498,-0.00005952,-0.00005263,-0.0
 0022174,-0.00001962,-0.00000996,0.00000597,0.00001886,-0.00001616,0.00
 043709,0.00068926,0.00012227,-0.00049427,-0.00033786,-0.00000323,-0.00
 008334,-0.00030313,-0.00003581,-0.00019563,-0.00015355,0.00004965,0.00
 002475,-0.00002718,-0.00002539,0.00000152,0.00000860,0.00000386,-0.000
 00731,0.00001212,0.00000374,0.00006126,-0.00001381,0.00002897,-0.00002
 941,0.00000700,-0.00000327,0.00004593,0.00003505,0.00003043,-0.0937036
 4,0.30464284,-0.00022768,-0.00038016,0.00029799,-0.00007943,0.00014008
 ,0.00007761,0.00036220,-0.00005745,-0.00071082,0.00020152,0.00017652,-
 0.00020568,0.00011401,0.00021653,-0.00011603,0.00276364,-0.00058662,0.
 00022123,0.00494814,-0.00673168,-0.00506793,-0.00554008,-0.00081772,-0
 .00009175,-0.00498346,0.00170748,-0.00183665,0.08105818,-0.23651105,-0
 .19179917,0.00207896,0.00010690,0.00049199,0.00030954,-0.00060868,-0.0
 0025976,-0.00004324,-0.00000031,0.00008284,0.00002033,-0.00017339,0.00
 005654,-0.00003395,0.00002840,0.00002171,-0.00005574,-0.00015114,-0.00
 006746,0.00012171,-0.00039452,-0.00037886,0.00004092,-0.00006723,0.000
 34096,0.00014910,-0.00008647,0.00000075,-0.00007849,0.00007790,0.00003
 683,-0.00010971,0.00008060,-0.00001659,0.00002739,-0.00003677,-0.00004
 332,-0.00015417,0.00007241,-0.00007760,-0.00005193,0.00004601,-0.00002
 946,0.00065502,-0.00067994,0.00002554,-0.00019569,0.00016520,0.0000631
 4,-0.00139496,0.00043558,-0.00017879,-0.00030006,0.00011799,0.00006199
 ,0.00001007,-0.00002567,-0.00000676,0.00000578,-0.00000720,0.00000829,
 -0.00001223,0.00001035,0.00000801,-0.00001409,0.00001558,0.00004272,-0
 .00003426,0.00002904,0.00000014,0.00002425,0.00002880,0.00009909,-0.07
 966656,0.24383419,0.19896904,-0.00018082,-0.00015389,0.00003598,-0.000
 07450,-0.00002327,0.00000456,-0.00005391,0.00011995,0.00004152,0.00011
 258,0.00012633,-0.00007038,0.00012989,0.00012596,0.00000720,0.00004669
 ,-0.00002114,-0.00002383,-0.00092653,-0.00170067,0.00012230,0.00253185
 ,0.00102956,0.00010662,0.00006837,0.00056405,-0.00001023,0.00048156,0.
 00023153,-0.00011647,-0.00357342,0.00004548,-0.00033584,-0.00015535,-0
 .00030193,-0.00021749,-0.00001459,-0.00004015,0.00002208,0.00001127,0.
 00001192,-0.00001087,-0.00000099,0.00000804,0.00000052,-0.00001406,-0.
 00001859,-0.00000881,-0.00004368,-0.00004674,-0.00004927,0.00000146,0.
 00002880,0.00001133,0.00018198,-0.00046555,-0.00031708,-0.00019710,0.0
 0024522,0.00018813,-0.00008279,0.00017532,0.00008203,0.00006120,0.0002
 3536,-0.00007925,-0.00024709,0.00016755,-0.00011275,-0.00095040,0.0006
 0783,0.00053289,-0.01715327,-0.03395672,0.00947337,-0.00427419,-0.0002
 9650,0.00004850,0.00691719,0.00208658,-0.00284296,-0.05655716,-0.10820
 541,0.02860984,0.00004102,-0.00004787,-0.00004539,0.00014855,-0.000358
 53,0.00023571,0.00008403,0.00009272,-0.00004470,0.00000553,0.00002411,
 0.00000278,0.00007403,0.00007904,0.00003391,0.00017025,-0.00012294,0.0
 0035228,-0.00013769,0.00001628,0.00008496,0.07357010,-0.00026516,-0.00
 010926,-0.00002147,-0.00003138,-0.00005662,0.00005111,0.00022571,0.000
 01824,0.00004922,0.00013850,0.00011635,-0.00005829,0.00021663,0.000082
 48,0.00003357,0.00000754,0.00002576,0.00001235,-0.00051004,0.00024244,
 -0.00008051,0.00065764,-0.00001424,0.00009077,0.00036960,-0.00018592,0
 .00002489,0.00026586,-0.00007792,-0.00005051,-0.00095383,0.00011315,-0
 .00020583,-0.00067930,-0.00045310,0.00015203,-0.00002355,-0.00002960,0
 .00002372,-0.00005372,-0.00001313,-0.00003835,0.00000602,0.00001265,-0
 .00000383,-0.00000007,0.00000259,-0.00000656,-0.00005180,0.00002562,-0
 .00004020,0.00002758,0.00001496,0.00000161,0.00010275,-0.00023711,-0.0
 0011576,-0.00009300,0.00017824,0.00009372,-0.00003961,0.00019831,0.000
 05562,0.00024199,-0.00001029,-0.00006463,0.00006756,0.00026002,-0.0001
 6735,0.00159635,0.00040605,-0.00150332,-0.00380005,-0.00151238,0.00119
 184,0.00283113,0.00213738,0.00057353,0.00399962,-0.00429498,-0.0013461
 6,-0.14385885,-0.47210617,0.09019663,0.00001165,-0.00006573,-0.0000240
 7,-0.00007961,-0.00017351,0.00005147,-0.00002916,-0.00000058,0.0000124
 6,-0.00010355,0.00009636,0.00001505,0.00006329,-0.00001512,0.00031147,
 0.00005220,0.00029153,-0.00041375,-0.00004720,0.00005185,0.00002643,0.
 13973826,0.47508165,0.00011501,0.00006625,0.00001403,0.00001467,0.0000
 3825,-0.00004216,-0.00017727,-0.00006291,-0.00008532,-0.00005911,-0.00
 005948,0.00002389,-0.00008223,-0.00005667,-0.00001823,-0.00004042,-0.0
 0005553,-0.00001799,0.00053217,0.00054517,0.00010125,-0.00126933,-0.00
 037171,-0.00013176,-0.00020907,-0.00010704,0.00008922,-0.00022639,-0.0
 0008641,0.00001035,0.00180303,-0.00014488,0.00016456,0.00017191,0.0004
 5023,-0.00028426,0.00000748,0.00001854,-0.00000486,-0.00000036,-0.0000
 1042,0.00004581,-0.00001037,-0.00001039,0.00000753,0.00000133,0.000001
 35,0.00000809,0.00000211,-0.00003077,0.00008451,-0.00002715,-0.0000239
 1,0.00000007,-0.00019385,0.00023376,0.00015654,0.00013076,-0.00010678,
 -0.00012667,0.00008521,-0.00014749,-0.00006386,-0.00006139,-0.00001797
 ,0.00011439,-0.00011360,-0.00014311,-0.00028734,0.00450093,-0.00058542
 ,-0.00193662,0.00800094,0.01161613,-0.00320272,-0.00472948,-0.00209500
 ,-0.00022879,-0.00429943,-0.00000287,-0.00110935,0.03190630,0.07881461
 ,-0.01487699,-0.00002775,0.00001180,0.00005709,0.00001430,0.00012620,-
 0.00006598,0.00001263,0.00002025,0.00000732,-0.00003023,0.00010701,0.0
 0001624,-0.00003858,0.00020159,-0.00001555,-0.00005303,0.00070699,-0.0
 0094454,0.00006145,-0.00001247,-0.00001978,-0.03571121,-0.08882689,0.0
 2256188\\-0.00001238,0.00002568,-0.00000605,0.00000819,-0.00002752,-0.
 00000962,-0.00002418,0.00004209,-0.00000679,0.00000030,-0.00001869,-0.
 00000192,0.00001032,0.00000745,0.00000224,-0.00000325,-0.00001898,-0.0
 0001673,0.00005108,-0.00001338,0.00000485,0.00001723,-0.00001323,0.000
 00329,-0.00004727,0.00003026,-0.00000208,-0.00003311,-0.00001135,0.000
 00653,-0.00001387,0.00000014,0.00000578,0.00005144,-0.00003152,-0.0000
 0333,-0.00000465,-0.00000761,0.00000209,0.00001690,0.00000140,0.000002
 75,-0.00000134,0.00000887,-0.00000174,0.00000405,0.00000257,0.00001175
 ,0.00000127,-0.00000047,0.,-0.00000079,0.00001128,0.00001450,0.0000110
 1,0.00002507,0.00001397,0.00000231,-0.00001035,-0.00001068,-0.00002606
 ,0.00000016,-0.00001490,0.00000271,-0.00002908,-0.00000646,-0.00000320
 ,0.00003917,-0.00000201,0.00001071,-0.00001914,0.00001122,-0.00005818,
 0.00004372,0.00001388,-0.00000531,0.00002008,0.00001159,0.00001841,-0.
 00005215,-0.00000664,0.00003761,-0.00001961,-0.00000270,0.00000476,-0.
 00000447,-0.00001100,-0.00000258,0.00000115,-0.00000630,-0.00000243,0.
 00000158,-0.00000344,-0.00000299,-0.00000587,0.00000145,-0.00000346,0.
 00000269,-0.00000720,-0.00000588,-0.00000592,0.00000135,0.00000699,0.0
 0000831,0.00001108,-0.00000440,0.00001766,0.00000127\\\@
 The archive entry for this job was punched.


 BLESSED ARE THOSE WHO NOUGHT EXPECT,
 FOR THEY SHALL NOT BE DISAPPOINTED..  WALCOT - ODE TO PITT
 Job cpu time:       2 days 10 hours 16 minutes 47.7 seconds.
 Elapsed time:       0 days  1 hours 38 minutes 12.6 seconds.
 File lengths (MBytes):  RWF=   3524 Int=      0 D2E=      0 Chk=     66 Scr=      1
 Normal termination of Gaussian 16 at Mon Jul 15 15:39:53 2024.
