 Entering Gaussian System, Link 0=g16
 Initial command:
 /apps/gaussian/g16c01/g16/l1.exe "/jobfs/131280758.gadi-pbs/Gau-862768.inp" -scrdir="/jobfs/131280758.gadi-pbs/"
 Entering Link 1 = /apps/gaussian/g16c01/g16/l1.exe PID=    862769.
  
 Copyright (c) 1988-2019, Gaussian, Inc.  All Rights Reserved.
  
 This is part of the Gaussian(R) 16 program.  It is based on
 the Gaussian(R) 09 system (copyright 2009, Gaussian, Inc.),
 the Gaussian(R) 03 system (copyright 2003, Gaussian, Inc.),
 the Gaussian(R) 98 system (copyright 1998, Gaussian, Inc.),
 the Gaussian(R) 94 system (copyright 1995, Gaussian, Inc.),
 the Gaussian 92(TM) system (copyright 1992, Gaussian, Inc.),
 the Gaussian 90(TM) system (copyright 1990, Gaussian, Inc.),
 the Gaussian 88(TM) system (copyright 1988, Gaussian, Inc.),
 the Gaussian 86(TM) system (copyright 1986, Carnegie Mellon
 University), and the Gaussian 82(TM) system (copyright 1983,
 Carnegie Mellon University). Gaussian is a federally registered
 trademark of Gaussian, Inc.
  
 This software contains proprietary and confidential information,
 including trade secrets, belonging to Gaussian, Inc.
  
 This software is provided under written license and may be
 used, copied, transmitted, or stored only in accord with that
 written license.
  
 The following legend is applicable only to US Government
 contracts under FAR:
  
                    RESTRICTED RIGHTS LEGEND
  
 Use, reproduction and disclosure by the US Government is
 subject to restrictions as set forth in subparagraphs (a)
 and (c) of the Commercial Computer Software - Restricted
 Rights clause in FAR 52.227-19.
  
 Gaussian, Inc.
 340 Quinnipiac St., Bldg. 40, Wallingford CT 06492
  
  
 ---------------------------------------------------------------
 Warning -- This program may not be used in any manner that
 competes with the business of Gaussian, Inc. or will provide
 assistance to any competitor of Gaussian, Inc.  The licensee
 of this program is prohibited from giving any competitor of
 Gaussian, Inc. access to this program.  By using this program,
 the user acknowledges that Gaussian, Inc. is engaged in the
 business of creating and licensing software in the field of
 computational chemistry and represents and warrants to the
 licensee that it is not a competitor of Gaussian, Inc. and that
 it will not use this program in any manner prohibited above.
 ---------------------------------------------------------------
  

 Cite this work as:
 Gaussian 16, Revision C.01,
 M. J. Frisch, G. W. Trucks, H. B. Schlegel, G. E. Scuseria, 
 M. A. Robb, J. R. Cheeseman, G. Scalmani, V. Barone, 
 G. A. Petersson, H. Nakatsuji, X. Li, M. Caricato, A. V. Marenich, 
 J. Bloino, B. G. Janesko, R. Gomperts, B. Mennucci, H. P. Hratchian, 
 J. V. Ortiz, A. F. Izmaylov, J. L. Sonnenberg, D. Williams-Young, 
 F. Ding, F. Lipparini, F. Egidi, J. Goings, B. Peng, A. Petrone, 
 T. Henderson, D. Ranasinghe, V. G. Zakrzewski, J. Gao, N. Rega, 
 G. Zheng, W. Liang, M. Hada, M. Ehara, K. Toyota, R. Fukuda, 
 J. Hasegawa, M. Ishida, T. Nakajima, Y. Honda, O. Kitao, H. Nakai, 
 T. Vreven, K. Throssell, J. A. Montgomery, Jr., J. E. Peralta, 
 F. Ogliaro, M. J. Bearpark, J. J. Heyd, E. N. Brothers, K. N. Kudin, 
 V. N. Staroverov, T. A. Keith, R. Kobayashi, J. Normand, 
 K. Raghavachari, A. P. Rendell, J. C. Burant, S. S. Iyengar, 
 J. Tomasi, M. Cossi, J. M. Millam, M. Klene, C. Adamo, R. Cammi, 
 J. W. Ochterski, R. L. Martin, K. Morokuma, O. Farkas, 
 J. B. Foresman, and D. J. Fox, Gaussian, Inc., Wallingford CT, 2019.
 
 ******************************************
 Gaussian 16:  ES64L-G16RevC.01  3-Jul-2019
                20-Dec-2024 
 ******************************************
 %mem=60gb
 %nprocs=48
 Will use up to   48 processors via shared memory.
 %RWF=/scratch/gy60/or4187/rwf/c.CONF1.Ca.CONF1.rwf
 %NoSave
 %Chk=c.CONF1.Ca.CONF1.chk
 ----------------------------------------------------------------------
 #UM06/Def2TZVP OPT Freq=Noraman INT(grid=ultrafine) EmpiricalDispersio
 n=GD3 SCF=XQC Pop=NPA
 ----------------------------------------------------------------------
 1/18=20,19=15,26=4,38=1/1,3;
 2/9=110,12=2,17=6,18=5,40=1/2;
 3/5=44,7=101,11=2,25=1,30=1,71=1,74=-54,75=-5,116=2,124=31/1,2,3;
 4//1;
 5/5=2,8=3,13=1,38=5/2,8;
 6/7=2,8=2,9=2,10=2,28=1,40=-1/1,7;
 7//1,2,3,16;
 1/18=20,19=15,26=4/3(2);
 2/9=110/2;
 99//99;
 2/9=110/2;
 3/5=44,7=101,11=2,25=1,30=1,71=1,74=-54,75=-5,116=2,124=31/1,2,3;
 4/5=5,16=3,69=1/1;
 5/5=2,8=3,13=1,38=5/2,8;
 7//1,2,3,16;
 1/18=20,19=15,26=4/3(-5);
 2/9=110/2;
 6/7=2,8=2,9=2,10=2,19=2,28=1,40=-1/1,7;
 99/9=1/99;
 ------------------------
 c.CONF1.Ca.CONF1.optfreq
 ------------------------
 Symbolic Z-matrix:
 Charge =  1 Multiplicity = 1
 C                    -1.27974   0.77032  -1.18512 
 C                    -2.59801   0.85779  -1.92936 
 N                    -3.74499   0.69894  -1.06898 
 O                    -0.39836  -0.06567  -1.56244 
 O                    -1.13734   1.44173  -0.13802 
 C                    -3.9578   -0.57585  -0.45887 
 P                    -3.21186  -0.89384   1.17659 
 O                    -3.82128   0.33042   2.01736 
 O                    -1.72035  -1.03562   1.31487 
 O                    -3.88458  -2.23786   1.7254 
 H                    -3.36704   0.53346   2.84795 
 Ca                    0.29787  -0.20685   0.7229 
 H                    -3.87672   1.47934  -0.42854 
 H                    -2.65891   1.84312  -2.42168 
 H                    -2.61761   0.0974   -2.72791 
 H                    -5.0382   -0.75996  -0.28523 
 H                    -3.62385  -1.38998  -1.12767 
 C                     2.8427    1.07445   2.16336 
 O                     3.73764   1.34661   3.07857 
 O                     1.73836   0.62504   2.41857 
 C                     3.33969   1.33455   0.76723 
 N                     2.25759   1.36656  -0.19589 
 C                     2.6187    0.89253  -1.52757 
 P                     2.43032  -0.92777  -1.60928 
 O                     3.88242  -1.42201  -2.03401 
 O                     1.94689  -1.43883  -0.27375 
 O                     1.51704  -1.3119   -2.84386 
 H                     3.3907    1.1116    3.95801 
 H                     4.01947   0.49043   0.54011 
 H                     3.98577   2.23254   0.77269 
 H                     1.84851   2.29965  -0.25598 
 H                     3.64206   1.16957  -1.8451 
 H                     1.92301   1.31084  -2.27062 
 H                     3.94604  -2.34899  -2.30991 
 H                     0.58821  -1.01912  -2.66537 
 H                    -4.84007  -2.21007   1.87453 
 

 GradGradGradGradGradGradGradGradGradGradGradGradGradGradGradGradGradGrad
 Berny optimization.
 Initialization pass.
                           ----------------------------
                           !    Initial Parameters    !
                           ! (Angstroms and Degrees)  !
 --------------------------                            --------------------------
 ! Name  Definition              Value          Derivative Info.                !
 --------------------------------------------------------------------------------
 ! R1    R(1,2)                  1.5164         estimate D2E/DX2                !
 ! R2    R(1,4)                  1.272          estimate D2E/DX2                !
 ! R3    R(1,5)                  1.252          estimate D2E/DX2                !
 ! R4    R(1,12)                 2.6616         estimate D2E/DX2                !
 ! R5    R(2,3)                  1.4426         estimate D2E/DX2                !
 ! R6    R(2,14)                 1.1032         estimate D2E/DX2                !
 ! R7    R(2,15)                 1.1028         estimate D2E/DX2                !
 ! R8    R(3,6)                  1.4292         estimate D2E/DX2                !
 ! R9    R(3,13)                 1.0181         estimate D2E/DX2                !
 ! R10   R(4,12)                 2.3932         estimate D2E/DX2                !
 ! R11   R(5,12)                 2.3492         estimate D2E/DX2                !
 ! R12   R(6,7)                  1.8255         estimate D2E/DX2                !
 ! R13   R(6,16)                 1.1096         estimate D2E/DX2                !
 ! R14   R(6,17)                 1.1053         estimate D2E/DX2                !
 ! R15   R(7,8)                  1.6053         estimate D2E/DX2                !
 ! R16   R(7,9)                  1.5046         estimate D2E/DX2                !
 ! R17   R(7,10)                 1.6            estimate D2E/DX2                !
 ! R18   R(8,11)                 0.9682         estimate D2E/DX2                !
 ! R19   R(9,12)                 2.2606         estimate D2E/DX2                !
 ! R20   R(10,36)                0.9675         estimate D2E/DX2                !
 ! R21   R(12,20)                2.3754         estimate D2E/DX2                !
 ! R22   R(12,22)                2.6759         estimate D2E/DX2                !
 ! R23   R(12,24)                3.2413         estimate D2E/DX2                !
 ! R24   R(12,26)                2.287          estimate D2E/DX2                !
 ! R25   R(18,19)                1.3087         estimate D2E/DX2                !
 ! R26   R(18,20)                1.2193         estimate D2E/DX2                !
 ! R27   R(18,21)                1.5046         estimate D2E/DX2                !
 ! R28   R(19,28)                0.9742         estimate D2E/DX2                !
 ! R29   R(21,22)                1.449          estimate D2E/DX2                !
 ! R30   R(21,29)                1.1074         estimate D2E/DX2                !
 ! R31   R(21,30)                1.1063         estimate D2E/DX2                !
 ! R32   R(22,23)                1.4589         estimate D2E/DX2                !
 ! R33   R(22,31)                1.0206         estimate D2E/DX2                !
 ! R34   R(23,24)                1.8318         estimate D2E/DX2                !
 ! R35   R(23,32)                1.1067         estimate D2E/DX2                !
 ! R36   R(23,33)                1.1005         estimate D2E/DX2                !
 ! R37   R(24,25)                1.5916         estimate D2E/DX2                !
 ! R38   R(24,26)                1.5095         estimate D2E/DX2                !
 ! R39   R(24,27)                1.583          estimate D2E/DX2                !
 ! R40   R(25,34)                0.9693         estimate D2E/DX2                !
 ! R41   R(27,35)                0.9901         estimate D2E/DX2                !
 ! A1    A(2,1,4)              119.6498         estimate D2E/DX2                !
 ! A2    A(2,1,5)              118.5826         estimate D2E/DX2                !
 ! A3    A(2,1,12)             152.6611         estimate D2E/DX2                !
 ! A4    A(4,1,5)              121.4472         estimate D2E/DX2                !
 ! A5    A(1,2,3)              113.0878         estimate D2E/DX2                !
 ! A6    A(1,2,14)             108.5756         estimate D2E/DX2                !
 ! A7    A(1,2,15)             109.3329         estimate D2E/DX2                !
 ! A8    A(3,2,14)             108.7011         estimate D2E/DX2                !
 ! A9    A(3,2,15)             109.9868         estimate D2E/DX2                !
 ! A10   A(14,2,15)            106.9605         estimate D2E/DX2                !
 ! A11   A(2,3,6)              118.1128         estimate D2E/DX2                !
 ! A12   A(2,3,13)             113.1814         estimate D2E/DX2                !
 ! A13   A(6,3,13)             113.3228         estimate D2E/DX2                !
 ! A14   A(3,6,7)              118.4888         estimate D2E/DX2                !
 ! A15   A(3,6,16)             111.0862         estimate D2E/DX2                !
 ! A16   A(3,6,17)             110.7149         estimate D2E/DX2                !
 ! A17   A(7,6,16)             103.2238         estimate D2E/DX2                !
 ! A18   A(7,6,17)             106.8782         estimate D2E/DX2                !
 ! A19   A(16,6,17)            105.4656         estimate D2E/DX2                !
 ! A20   A(6,7,8)              100.4429         estimate D2E/DX2                !
 ! A21   A(6,7,9)              120.2539         estimate D2E/DX2                !
 ! A22   A(6,7,10)             106.3689         estimate D2E/DX2                !
 ! A23   A(8,7,9)              113.5808         estimate D2E/DX2                !
 ! A24   A(8,7,10)             107.5387         estimate D2E/DX2                !
 ! A25   A(9,7,10)             107.8244         estimate D2E/DX2                !
 ! A26   A(7,8,11)             115.5388         estimate D2E/DX2                !
 ! A27   A(7,9,12)             145.7289         estimate D2E/DX2                !
 ! A28   A(7,10,36)            116.3584         estimate D2E/DX2                !
 ! A29   A(1,12,9)              78.0622         estimate D2E/DX2                !
 ! A30   A(1,12,20)            137.954          estimate D2E/DX2                !
 ! A31   A(1,12,22)             88.3998         estimate D2E/DX2                !
 ! A32   A(1,12,24)             87.4673         estimate D2E/DX2                !
 ! A33   A(1,12,26)            108.2248         estimate D2E/DX2                !
 ! A34   A(4,12,5)              55.314          estimate D2E/DX2                !
 ! A35   A(4,12,9)              90.6855         estimate D2E/DX2                !
 ! A36   A(4,12,20)            146.871          estimate D2E/DX2                !
 ! A37   A(4,12,22)             81.4012         estimate D2E/DX2                !
 ! A38   A(4,12,24)             61.1465         estimate D2E/DX2                !
 ! A39   A(4,12,26)             79.9442         estimate D2E/DX2                !
 ! A40   A(5,12,9)              78.92           estimate D2E/DX2                !
 ! A41   A(5,12,20)            112.7261         estimate D2E/DX2                !
 ! A42   A(5,12,22)             84.7766         estimate D2E/DX2                !
 ! A43   A(5,12,24)            107.1173         estimate D2E/DX2                !
 ! A44   A(5,12,26)            131.2108         estimate D2E/DX2                !
 ! A45   A(9,12,20)            118.8725         estimate D2E/DX2                !
 ! A46   A(9,12,22)            163.599          estimate D2E/DX2                !
 ! A47   A(9,12,24)            133.9651         estimate D2E/DX2                !
 ! A48   A(9,12,26)            124.0798         estimate D2E/DX2                !
 ! A49   A(20,12,22)            66.1122         estimate D2E/DX2                !
 ! A50   A(20,12,24)           101.1019         estimate D2E/DX2                !
 ! A51   A(20,12,26)            93.5825         estimate D2E/DX2                !
 ! A52   A(22,12,24)            53.2662         estimate D2E/DX2                !
 ! A53   A(22,12,26)            68.8412         estimate D2E/DX2                !
 ! A54   A(19,18,20)           123.3436         estimate D2E/DX2                !
 ! A55   A(19,18,21)           112.7735         estimate D2E/DX2                !
 ! A56   A(20,18,21)           123.8562         estimate D2E/DX2                !
 ! A57   A(18,19,28)           109.732          estimate D2E/DX2                !
 ! A58   A(12,20,18)           121.9329         estimate D2E/DX2                !
 ! A59   A(18,21,22)           111.9569         estimate D2E/DX2                !
 ! A60   A(18,21,29)           105.1476         estimate D2E/DX2                !
 ! A61   A(18,21,30)           109.187          estimate D2E/DX2                !
 ! A62   A(22,21,29)           109.8129         estimate D2E/DX2                !
 ! A63   A(22,21,30)           114.9289         estimate D2E/DX2                !
 ! A64   A(29,21,30)           105.1454         estimate D2E/DX2                !
 ! A65   A(12,22,21)           107.801          estimate D2E/DX2                !
 ! A66   A(12,22,23)           107.6761         estimate D2E/DX2                !
 ! A67   A(12,22,31)           105.3222         estimate D2E/DX2                !
 ! A68   A(21,22,23)           114.5002         estimate D2E/DX2                !
 ! A69   A(21,22,31)           111.0182         estimate D2E/DX2                !
 ! A70   A(23,22,31)           110.0307         estimate D2E/DX2                !
 ! A71   A(22,23,24)           109.7629         estimate D2E/DX2                !
 ! A72   A(22,23,32)           114.1686         estimate D2E/DX2                !
 ! A73   A(22,23,33)           109.6541         estimate D2E/DX2                !
 ! A74   A(24,23,32)           109.3313         estimate D2E/DX2                !
 ! A75   A(24,23,33)           106.4148         estimate D2E/DX2                !
 ! A76   A(32,23,33)           107.1976         estimate D2E/DX2                !
 ! A77   A(12,24,23)            79.3125         estimate D2E/DX2                !
 ! A78   A(12,24,25)           149.4624         estimate D2E/DX2                !
 ! A79   A(12,24,27)           103.6248         estimate D2E/DX2                !
 ! A80   A(23,24,25)           103.1003         estimate D2E/DX2                !
 ! A81   A(23,24,26)           109.2629         estimate D2E/DX2                !
 ! A82   A(23,24,27)           109.5879         estimate D2E/DX2                !
 ! A83   A(25,24,26)           115.034          estimate D2E/DX2                !
 ! A84   A(25,24,27)           104.0569         estimate D2E/DX2                !
 ! A85   A(26,24,27)           115.0305         estimate D2E/DX2                !
 ! A86   A(24,25,34)           115.6472         estimate D2E/DX2                !
 ! A87   A(24,27,35)           109.2008         estimate D2E/DX2                !
 ! D1    D(4,1,2,3)            125.255          estimate D2E/DX2                !
 ! D2    D(4,1,2,14)          -114.017          estimate D2E/DX2                !
 ! D3    D(4,1,2,15)             2.3448         estimate D2E/DX2                !
 ! D4    D(5,1,2,3)            -48.3411         estimate D2E/DX2                !
 ! D5    D(5,1,2,14)            72.3869         estimate D2E/DX2                !
 ! D6    D(5,1,2,15)          -171.2513         estimate D2E/DX2                !
 ! D7    D(12,1,2,3)            35.2393         estimate D2E/DX2                !
 ! D8    D(12,1,2,14)          155.9673         estimate D2E/DX2                !
 ! D9    D(12,1,2,15)          -87.6709         estimate D2E/DX2                !
 ! D10   D(2,1,12,9)            -9.8348         estimate D2E/DX2                !
 ! D11   D(2,1,12,20)         -129.9997         estimate D2E/DX2                !
 ! D12   D(2,1,12,22)          179.4837         estimate D2E/DX2                !
 ! D13   D(2,1,12,24)          126.1876         estimate D2E/DX2                !
 ! D14   D(2,1,12,26)          112.3986         estimate D2E/DX2                !
 ! D15   D(1,2,3,6)            -67.0561         estimate D2E/DX2                !
 ! D16   D(1,2,3,13)            68.7562         estimate D2E/DX2                !
 ! D17   D(14,2,3,6)           172.2873         estimate D2E/DX2                !
 ! D18   D(14,2,3,13)          -51.9003         estimate D2E/DX2                !
 ! D19   D(15,2,3,6)            55.4907         estimate D2E/DX2                !
 ! D20   D(15,2,3,13)         -168.697          estimate D2E/DX2                !
 ! D21   D(2,3,6,7)             90.2859         estimate D2E/DX2                !
 ! D22   D(2,3,6,16)          -150.4909         estimate D2E/DX2                !
 ! D23   D(2,3,6,17)           -33.6594         estimate D2E/DX2                !
 ! D24   D(13,3,6,7)           -45.4673         estimate D2E/DX2                !
 ! D25   D(13,3,6,16)           73.7559         estimate D2E/DX2                !
 ! D26   D(13,3,6,17)         -169.4126         estimate D2E/DX2                !
 ! D27   D(3,6,7,8)             55.7399         estimate D2E/DX2                !
 ! D28   D(3,6,7,9)            -69.5996         estimate D2E/DX2                !
 ! D29   D(3,6,7,10)           167.672          estimate D2E/DX2                !
 ! D30   D(16,6,7,8)           -67.4911         estimate D2E/DX2                !
 ! D31   D(16,6,7,9)           167.1694         estimate D2E/DX2                !
 ! D32   D(16,6,7,10)           44.441          estimate D2E/DX2                !
 ! D33   D(17,6,7,8)          -178.441          estimate D2E/DX2                !
 ! D34   D(17,6,7,9)            56.2195         estimate D2E/DX2                !
 ! D35   D(17,6,7,10)          -66.5089         estimate D2E/DX2                !
 ! D36   D(6,7,8,11)          -162.3571         estimate D2E/DX2                !
 ! D37   D(9,7,8,11)           -32.6067         estimate D2E/DX2                !
 ! D38   D(10,7,8,11)           86.6171         estimate D2E/DX2                !
 ! D39   D(6,7,9,12)            43.9799         estimate D2E/DX2                !
 ! D40   D(8,7,9,12)           -74.9373         estimate D2E/DX2                !
 ! D41   D(10,7,9,12)          166.0022         estimate D2E/DX2                !
 ! D42   D(6,7,10,36)          -62.603          estimate D2E/DX2                !
 ! D43   D(8,7,10,36)           44.3119         estimate D2E/DX2                !
 ! D44   D(9,7,10,36)          167.1535         estimate D2E/DX2                !
 ! D45   D(7,9,12,1)           -20.1805         estimate D2E/DX2                !
 ! D46   D(7,9,12,4)           -45.9355         estimate D2E/DX2                !
 ! D47   D(7,9,12,5)             8.4539         estimate D2E/DX2                !
 ! D48   D(7,9,12,20)          118.426          estimate D2E/DX2                !
 ! D49   D(7,9,12,22)           14.7959         estimate D2E/DX2                !
 ! D50   D(7,9,12,24)          -94.7143         estimate D2E/DX2                !
 ! D51   D(7,9,12,26)         -124.2387         estimate D2E/DX2                !
 ! D52   D(1,12,20,18)         -75.6044         estimate D2E/DX2                !
 ! D53   D(4,12,20,18)         -30.1491         estimate D2E/DX2                !
 ! D54   D(5,12,20,18)         -90.9978         estimate D2E/DX2                !
 ! D55   D(9,12,20,18)         179.4022         estimate D2E/DX2                !
 ! D56   D(22,12,20,18)        -18.0623         estimate D2E/DX2                !
 ! D57   D(24,12,20,18)         23.0424         estimate D2E/DX2                !
 ! D58   D(26,12,20,18)         46.8965         estimate D2E/DX2                !
 ! D59   D(1,12,22,21)         169.488          estimate D2E/DX2                !
 ! D60   D(1,12,22,23)         -66.494          estimate D2E/DX2                !
 ! D61   D(1,12,22,31)          50.8969         estimate D2E/DX2                !
 ! D62   D(4,12,22,21)        -162.7334         estimate D2E/DX2                !
 ! D63   D(4,12,22,23)         -38.7153         estimate D2E/DX2                !
 ! D64   D(4,12,22,31)          78.6756         estimate D2E/DX2                !
 ! D65   D(5,12,22,21)         141.6082         estimate D2E/DX2                !
 ! D66   D(5,12,22,23)         -94.3738         estimate D2E/DX2                !
 ! D67   D(5,12,22,31)          23.0171         estimate D2E/DX2                !
 ! D68   D(9,12,22,21)         135.3588         estimate D2E/DX2                !
 ! D69   D(9,12,22,23)        -100.6231         estimate D2E/DX2                !
 ! D70   D(9,12,22,31)          16.7678         estimate D2E/DX2                !
 ! D71   D(20,12,22,21)         23.9129         estimate D2E/DX2                !
 ! D72   D(20,12,22,23)        147.931          estimate D2E/DX2                !
 ! D73   D(20,12,22,31)        -94.6781         estimate D2E/DX2                !
 ! D74   D(24,12,22,21)       -102.4783         estimate D2E/DX2                !
 ! D75   D(24,12,22,23)         21.5398         estimate D2E/DX2                !
 ! D76   D(24,12,22,31)        138.9307         estimate D2E/DX2                !
 ! D77   D(26,12,22,21)        -80.251          estimate D2E/DX2                !
 ! D78   D(26,12,22,23)         43.7671         estimate D2E/DX2                !
 ! D79   D(26,12,22,31)        161.158          estimate D2E/DX2                !
 ! D80   D(1,12,24,23)          73.4227         estimate D2E/DX2                !
 ! D81   D(1,12,24,25)         171.1261         estimate D2E/DX2                !
 ! D82   D(1,12,24,27)         -34.3538         estimate D2E/DX2                !
 ! D83   D(4,12,24,23)          84.9605         estimate D2E/DX2                !
 ! D84   D(4,12,24,25)        -177.3361         estimate D2E/DX2                !
 ! D85   D(4,12,24,27)         -22.816          estimate D2E/DX2                !
 ! D86   D(5,12,24,23)          53.122          estimate D2E/DX2                !
 ! D87   D(5,12,24,25)         150.8254         estimate D2E/DX2                !
 ! D88   D(5,12,24,27)         -54.6546         estimate D2E/DX2                !
 ! D89   D(9,12,24,23)         144.134          estimate D2E/DX2                !
 ! D90   D(9,12,24,25)        -118.1627         estimate D2E/DX2                !
 ! D91   D(9,12,24,27)          36.3574         estimate D2E/DX2                !
 ! D92   D(20,12,24,23)        -65.0664         estimate D2E/DX2                !
 ! D93   D(20,12,24,25)         32.637          estimate D2E/DX2                !
 ! D94   D(20,12,24,27)       -172.8429         estimate D2E/DX2                !
 ! D95   D(22,12,24,23)        -16.4703         estimate D2E/DX2                !
 ! D96   D(22,12,24,25)         81.2331         estimate D2E/DX2                !
 ! D97   D(22,12,24,27)       -124.2468         estimate D2E/DX2                !
 ! D98   D(20,18,19,28)          1.6411         estimate D2E/DX2                !
 ! D99   D(21,18,19,28)       -176.5446         estimate D2E/DX2                !
 ! D100  D(19,18,20,12)       -169.046          estimate D2E/DX2                !
 ! D101  D(21,18,20,12)          8.9394         estimate D2E/DX2                !
 ! D102  D(19,18,21,22)       -165.0511         estimate D2E/DX2                !
 ! D103  D(19,18,21,29)         75.756          estimate D2E/DX2                !
 ! D104  D(19,18,21,30)        -36.6271         estimate D2E/DX2                !
 ! D105  D(20,18,21,22)         16.774          estimate D2E/DX2                !
 ! D106  D(20,18,21,29)       -102.4188         estimate D2E/DX2                !
 ! D107  D(20,18,21,30)        145.1981         estimate D2E/DX2                !
 ! D108  D(18,21,22,12)        -28.4422         estimate D2E/DX2                !
 ! D109  D(18,21,22,23)       -148.2298         estimate D2E/DX2                !
 ! D110  D(18,21,22,31)         86.4357         estimate D2E/DX2                !
 ! D111  D(29,21,22,12)         87.963          estimate D2E/DX2                !
 ! D112  D(29,21,22,23)        -31.8246         estimate D2E/DX2                !
 ! D113  D(29,21,22,31)       -157.1591         estimate D2E/DX2                !
 ! D114  D(30,21,22,12)       -153.7625         estimate D2E/DX2                !
 ! D115  D(30,21,22,23)         86.4499         estimate D2E/DX2                !
 ! D116  D(30,21,22,31)        -38.8846         estimate D2E/DX2                !
 ! D117  D(12,22,23,24)        -33.5883         estimate D2E/DX2                !
 ! D118  D(12,22,23,32)       -156.7345         estimate D2E/DX2                !
 ! D119  D(12,22,23,33)         82.9741         estimate D2E/DX2                !
 ! D120  D(21,22,23,24)         86.269          estimate D2E/DX2                !
 ! D121  D(21,22,23,32)        -36.8772         estimate D2E/DX2                !
 ! D122  D(21,22,23,33)       -157.1686         estimate D2E/DX2                !
 ! D123  D(31,22,23,24)       -147.8799         estimate D2E/DX2                !
 ! D124  D(31,22,23,32)         88.9738         estimate D2E/DX2                !
 ! D125  D(31,22,23,33)        -31.3175         estimate D2E/DX2                !
 ! D126  D(22,23,24,12)         26.2848         estimate D2E/DX2                !
 ! D127  D(22,23,24,25)       -122.5859         estimate D2E/DX2                !
 ! D128  D(22,23,24,26)          0.2037         estimate D2E/DX2                !
 ! D129  D(22,23,24,27)        127.0794         estimate D2E/DX2                !
 ! D130  D(32,23,24,12)        152.235          estimate D2E/DX2                !
 ! D131  D(32,23,24,25)          3.3644         estimate D2E/DX2                !
 ! D132  D(32,23,24,26)        126.1539         estimate D2E/DX2                !
 ! D133  D(32,23,24,27)       -106.9703         estimate D2E/DX2                !
 ! D134  D(33,23,24,12)        -92.2977         estimate D2E/DX2                !
 ! D135  D(33,23,24,25)        118.8317         estimate D2E/DX2                !
 ! D136  D(33,23,24,26)       -118.3788         estimate D2E/DX2                !
 ! D137  D(33,23,24,27)          8.4969         estimate D2E/DX2                !
 ! D138  D(12,24,25,34)        101.0651         estimate D2E/DX2                !
 ! D139  D(23,24,25,34)       -167.8042         estimate D2E/DX2                !
 ! D140  D(26,24,25,34)         73.3456         estimate D2E/DX2                !
 ! D141  D(27,24,25,34)        -53.4042         estimate D2E/DX2                !
 ! D142  D(12,24,27,35)         14.1029         estimate D2E/DX2                !
 ! D143  D(23,24,27,35)        -69.2189         estimate D2E/DX2                !
 ! D144  D(25,24,27,35)       -178.9194         estimate D2E/DX2                !
 ! D145  D(26,24,27,35)         54.3287         estimate D2E/DX2                !
 --------------------------------------------------------------------------------
 Trust Radius=3.00D-01 FncErr=1.00D-07 GrdErr=1.00D-06 EigMax=2.50D+02 EigMin=1.00D-04
 Number of steps in this run=    216 maximum allowed number of steps=    216.
 GradGradGradGradGradGradGradGradGradGradGradGradGradGradGradGradGradGrad

                          Input orientation:                          
 ---------------------------------------------------------------------
 Center     Atomic      Atomic             Coordinates (Angstroms)
 Number     Number       Type             X           Y           Z
 ---------------------------------------------------------------------
      1          6           0       -1.279742    0.770318   -1.185122
      2          6           0       -2.598013    0.857791   -1.929358
      3          7           0       -3.744989    0.698943   -1.068976
      4          8           0       -0.398359   -0.065672   -1.562441
      5          8           0       -1.137339    1.441734   -0.138015
      6          6           0       -3.957799   -0.575850   -0.458874
      7         15           0       -3.211864   -0.893839    1.176587
      8          8           0       -3.821276    0.330423    2.017356
      9          8           0       -1.720349   -1.035621    1.314871
     10          8           0       -3.884577   -2.237855    1.725396
     11          1           0       -3.367044    0.533462    2.847949
     12         20           0        0.297866   -0.206851    0.722901
     13          1           0       -3.876715    1.479341   -0.428536
     14          1           0       -2.658914    1.843119   -2.421683
     15          1           0       -2.617612    0.097396   -2.727905
     16          1           0       -5.038197   -0.759958   -0.285226
     17          1           0       -3.623847   -1.389983   -1.127665
     18          6           0        2.842700    1.074450    2.163358
     19          8           0        3.737643    1.346607    3.078571
     20          8           0        1.738362    0.625039    2.418568
     21          6           0        3.339690    1.334553    0.767232
     22          7           0        2.257593    1.366558   -0.195892
     23          6           0        2.618695    0.892533   -1.527571
     24         15           0        2.430319   -0.927767   -1.609282
     25          8           0        3.882417   -1.422013   -2.034013
     26          8           0        1.946886   -1.438831   -0.273749
     27          8           0        1.517039   -1.311900   -2.843861
     28          1           0        3.390699    1.111604    3.958006
     29          1           0        4.019468    0.490426    0.540113
     30          1           0        3.985773    2.232544    0.772694
     31          1           0        1.848511    2.299652   -0.255983
     32          1           0        3.642062    1.169567   -1.845102
     33          1           0        1.923014    1.310842   -2.270625
     34          1           0        3.946038   -2.348995   -2.309908
     35          1           0        0.588214   -1.019123   -2.665373
     36          1           0       -4.840071   -2.210072    1.874526
 ---------------------------------------------------------------------
                    Distance matrix (angstroms):
                    1          2          3          4          5
     1  C    0.000000
     2  C    1.516370   0.000000
     3  N    2.469014   1.442582   0.000000
     4  O    1.272040   2.413688   3.468152   0.000000
     5  O    1.252002   2.384002   2.866752   2.201670   0.000000
     6  C    3.084088   2.463061   1.429199   3.761350   3.482613
     7  P    3.475656   3.618275   2.804234   4.012972   3.389209
     8  O    4.112027   4.165458   3.109191   4.968722   3.617203
     9  O    3.115367   3.857502   3.576395   3.311704   2.930540
    10  O    4.930050   4.959385   4.056203   5.261366   4.955704
    11  H    4.547371   4.849665   3.938594   5.350102   3.835691
    12  Ca   2.661626   4.068667   4.513973   2.393208   2.349217
    13  H    2.796320   2.067334   1.018104   3.971369   2.754996
    14  H    2.140584   1.103161   2.078103   3.080891   2.773344
    15  H    2.150094   1.102843   2.094012   2.511968   3.272000
    16  H    4.156626   3.357793   2.101200   4.862243   4.481720
    17  H    3.188265   2.597602   2.093258   3.513773   3.896248
    18  C    5.319713   6.811654   7.347560   5.068128   4.612150
    19  O    6.609488   8.090663   8.579708   6.374953   5.841311
    20  O    4.702833   6.145143   6.498889   4.570677   3.933544
    21  C    5.046701   6.538747   7.346314   4.621798   4.568889
    22  N    3.721131   5.180797   6.102375   3.312525   3.396257
    23  C    3.915357   5.232274   6.383123   3.165753   4.042311
    24  P    4.102190   5.345540   6.408787   2.957503   4.528503
    25  O    5.672285   6.870549   7.975404   4.515206   6.082253
    26  O    4.015229   5.354588   6.131875   3.007734   4.222383
    27  O    3.861222   4.741047   5.906153   2.619899   4.685064
    28  H    6.955663   8.401794   8.738357   6.798402   6.114696
    29  H    5.580000   7.072786   7.932178   4.924142   5.287485
    30  H    5.804894   7.248260   8.093724   5.473141   5.263179
    31  H    3.603904   4.964950   5.874561   3.514259   3.108896
    32  H    4.981879   6.248427   7.442605   4.234467   5.082410
    33  H    3.424635   4.556468   5.826202   2.790177   3.732414
    34  H    6.189025   7.297458   8.365508   4.964479   6.702794
    35  H    2.980353   3.770487   4.927158   1.760356   3.926943
    36  H    5.560586   5.376629   4.280861   6.011655   5.576400
                    6          7          8          9         10
     6  C    0.000000
     7  P    1.825450   0.000000
     8  O    2.640394   1.605333   0.000000
     9  O    2.892013   1.504606   2.602586   0.000000
    10  O    2.745662   1.600036   2.585595   2.509538   0.000000
    11  H    3.537603   2.203343   0.968212   2.742982   3.034496
    12  Ca   4.432091   3.604994   4.351046   2.260637   4.756343
    13  H    2.057014   2.941162   2.702865   3.743583   4.296165
    14  H    3.375075   4.554584   4.831604   4.809353   5.945996
    15  H    2.719902   4.071945   4.901083   4.293349   5.185604
    16  H    1.109643   2.343141   2.823422   3.693834   2.749112
    17  H    1.105269   2.392795   3.590255   3.116867   2.987779
    18  C    7.473044   6.442486   6.706972   5.098407   7.511287
    19  O    8.684997   7.545381   7.700393   6.210903   8.530984
    20  O    6.493694   5.324870   5.581876   3.992320   6.347763
    21  C    7.642403   6.932254   7.338291   5.614412   8.116046
    22  N    6.517147   6.075200   6.551694   4.886399   7.376273
    23  C    6.822649   6.670758   7.372632   5.533946   7.916671
    24  P    6.500411   6.292571   7.336074   5.078420   7.260463
    25  O    8.041520   7.804853   8.878711   6.538755   8.667465
    26  O    5.970286   5.386389   6.453767   4.016828   6.216187
    27  O    6.016958   6.221036   7.404476   5.277505   7.135331
    28  H    8.738235   7.439888   7.509257   6.141625   8.314630
    29  H    8.109976   7.390091   7.980295   5.989539   8.445256
    30  H    8.514939   7.857696   8.131253   6.598083   9.101348
    31  H    6.482508   6.152888   6.418132   5.131119   7.575165
    32  H    7.919974   7.769462   8.445363   6.603312   9.000515
    33  H    6.436304   6.565885   7.234975   5.624567   7.892372
    34  H    8.309092   8.093743   9.286315   6.853605   8.809912
    35  H    5.072609   5.405270   6.572125   4.601312   6.385140
    36  H    2.982254   2.206954   2.740886   3.380120   0.967461
                   11         12         13         14         15
    11  H    0.000000
    12  Ca   4.300634   0.000000
    13  H    3.448160   4.647169   0.000000
    14  H    5.475917   4.778423   2.363896   0.000000
    15  H    5.642867   4.527763   2.963480   1.772859   0.000000
    16  H    3.779215   5.458553   2.526665   4.123281   3.544146
    17  H    4.423923   4.494911   2.964076   3.613658   2.405322
    18  C    6.270746   3.192622   7.213349   7.202861   7.395546
    19  O    7.154786   4.449099   8.384263   8.450755   8.698561
    20  O    5.124248   2.375365   6.353340   6.651901   6.763069
    21  C    7.067630   3.410364   7.316237   6.812567   7.016836
    22  N    6.449462   2.675879   6.139754   5.417868   5.638217
    23  C    7.423151   3.414604   6.613817   5.436563   5.430650
    24  P    7.457313   3.241320   6.853249   5.851333   5.271043
    25  O    8.956122   4.682542   8.437982   7.321229   6.711220
    26  O    6.470918   2.286996   6.515675   6.049645   5.405323
    27  O    7.723750   3.928015   6.535855   5.250806   4.369771
    28  H    6.872668   4.665817   8.496605   8.822322   9.045984
    29  H    7.738767   3.790769   8.016604   7.429859   7.408458
    30  H    7.826716   4.421967   7.989305   7.382924   7.772886
    31  H    6.321062   3.105683   5.786268   5.021510   5.559369
    32  H    8.459132   4.435404   7.657325   6.363051   6.411896
    33  H    7.401947   3.729033   6.087572   4.615214   4.722165
    34  H    9.401765   5.205369   8.910173   7.823791   7.017196
    35  H    6.960696   3.496353   5.584027   4.335396   3.395268
    36  H    3.262566   5.633607   4.454651   6.296285   5.607683
                   16         17         18         19         20
    16  H    0.000000
    17  H    1.762674   0.000000
    18  C    8.453943   7.662930   0.000000
    19  O    9.631620   8.909146   1.308666   0.000000
    20  O    7.426336   6.737163   1.219289   2.225621   0.000000
    21  C    8.699633   7.713921   1.504599   2.345378   2.407191
    22  N    7.599908   6.561864   2.448212   3.593474   2.766741
    23  C    7.931087   6.658764   3.702192   4.761803   4.051982
    24  P    7.586832   6.090856   4.290891   5.371949   4.371909
    25  O    9.114490   7.560853   4.993122   5.815903   5.349100
    26  O    7.018004   5.636011   3.613663   4.712061   3.398766
    27  O    7.058496   5.420344   5.703007   6.861045   5.611941
    28  H    9.620501   9.018085   1.876817   0.974167   2.310158
    29  H    9.180737   8.045974   2.088250   2.693740   2.958067
    30  H    9.565892   8.639467   2.140501   2.482645   3.216183
    31  H    7.535835   6.657322   2.888380   3.949223   3.157480
    32  H    9.027910   7.736888   4.088493   4.927782   4.701007
    33  H    7.529174   6.274430   4.534524   5.648721   4.742673
    34  H    9.345632   7.721435   5.739986   6.537324   6.006429
    35  H    6.114635   4.499282   5.725591   6.964802   5.465580
    36  H    2.608949   3.341392   8.360411   9.363592   7.183983
                   21         22         23         24         25
    21  C    0.000000
    22  N    1.448988   0.000000
    23  C    2.445677   1.458925   0.000000
    24  P    3.404829   2.700265   1.831845   0.000000
    25  O    3.967390   3.714145   2.685256   1.591623   0.000000
    26  O    3.273408   2.823616   2.731054   1.509484   2.616313
    27  O    4.833815   3.838528   2.793885   1.582980   2.502597
    28  H    3.198960   4.313212   5.543964   6.006335   6.524208
    29  H    1.107353   2.100837   2.529659   3.025982   3.209725
    30  H    1.106274   2.162105   2.992616   4.252154   4.609130
    31  H    2.049878   1.020599   2.046974   3.547697   4.598800
    32  H    2.634946   2.162279   1.106730   2.433668   2.609549
    33  H    3.352030   2.102276   1.100493   2.388744   3.371015
    34  H    4.837868   4.596220   3.589066   2.192753   0.969258
    35  H    4.989307   3.817936   3.011956   2.125329   3.378270
    36  H    8.983259   8.213145   8.765479   8.163320   9.590595
                   26         27         28         29         30
    26  O    0.000000
    27  O    2.608899   0.000000
    28  H    5.147530   7.459850   0.000000
    29  H    2.946184   4.578408   3.530326   0.000000
    30  H    4.327944   5.633578   3.428824   1.757898   0.000000
    31  H    3.739819   4.455367   4.641928   2.936005   2.372882
    32  H    3.485184   3.416273   5.808838   2.508569   2.846210
    33  H    3.398349   2.715178   6.402315   3.601174   3.790290
    34  H    2.995154   2.694570   7.181287   4.023720   5.522183
    35  H    2.782446   0.990097   7.500871   4.932280   5.825551
    36  H    7.160494   7.967605   9.117016   9.357605   9.942152
                   31         32         33         34         35
    31  H    0.000000
    32  H    2.649381   0.000000
    33  H    2.245458   1.776557   0.000000
    34  H    5.498013   3.562123   4.181934   0.000000
    35  H    4.290428   3.845672   2.714084   3.629035   0.000000
    36  H    8.343488   9.859217   8.678618   9.732650   7.176024
                   36
    36  H    0.000000
 Stoichiometry    C6H15CaN2O10P2(1+)
 Framework group  C1[X(C6H15CaN2O10P2)]
 Deg. of freedom   102
 Full point group                 C1      NOp   1
 Largest Abelian subgroup         C1      NOp   1
 Largest concise Abelian subgroup C1      NOp   1
                         Standard orientation:                         
 ---------------------------------------------------------------------
 Center     Atomic      Atomic             Coordinates (Angstroms)
 Number     Number       Type             X           Y           Z
 ---------------------------------------------------------------------
      1          6           0        1.061117   -1.106633    1.248983
      2          6           0        2.273434   -1.924850    1.649217
      3          7           0        3.520355   -1.234092    1.427667
      4          8           0        0.218614   -1.590385    0.427850
      5          8           0        0.980981    0.078401    1.644937
      6          6           0        3.911360   -0.965911    0.079408
      7         15           0        3.387003    0.607823   -0.682617
      8          8           0        3.979324    1.656589    0.378674
      9          8           0        1.938964    0.842733   -1.017042
     10          8           0        4.232209    0.758713   -2.032792
     11          1           0        3.606682    2.549197    0.335973
     12         20           0       -0.197937    0.649393   -0.305176
     13          1           0        3.655735   -0.441286    2.051901
     14          1           0        2.191913   -2.172586    2.721106
     15          1           0        2.268076   -2.879505    1.097070
     16          1           0        5.016398   -0.939335   -0.018022
     17          1           0        3.575550   -1.775867   -0.593512
     18          6           0       -2.663992    2.576844    0.324377
     19          8           0       -3.469176    3.607545    0.280325
     20          8           0       -1.502889    2.617153   -0.045594
     21          6           0       -3.337445    1.333204    0.837837
     22          7           0       -2.378960    0.311461    1.207857
     23          6           0       -2.846710   -1.056429    1.011521
     24         15           0       -2.511188   -1.584672   -0.710118
     25          8           0       -3.953651   -1.981551   -1.253304
     26          8           0       -1.836213   -0.457996   -1.454129
     27          8           0       -1.714474   -2.952504   -0.699834
     28          1           0       -3.005234    4.370969   -0.108189
     29          1           0       -3.962615    0.974570   -0.002862
     30          1           0       -4.054377    1.610095    1.633565
     31          1           0       -2.062135    0.437903    2.169760
     32          1           0       -3.919774   -1.205260    1.237874
     33          1           0       -2.279210   -1.738674    1.662343
     34          1           0       -3.967366   -2.462731   -2.094576
     35          1           0       -0.800390   -2.794321   -0.353829
     36          1           0        5.192403    0.823175   -1.933536
 ---------------------------------------------------------------------
 Rotational constants (GHZ):           0.3619457           0.1604543           0.1340936
 Standard basis: def2TZVP (5D, 7F)
 There are   861 symmetry adapted cartesian basis functions of A   symmetry.
 There are   758 symmetry adapted basis functions of A   symmetry.
   758 basis functions,  1253 primitive gaussians,   861 cartesian basis functions
    97 alpha electrons       97 beta electrons
       nuclear repulsion energy      2664.9300297108 Hartrees.
 NAtoms=   36 NActive=   36 NUniq=   36 SFac= 1.00D+00 NAtFMM=   60 NAOKFM=F Big=F
 Integral buffers will be    131072 words long.
 Raffenetti 2 integral format.
 Two-electron integral symmetry is turned on.
 Nuclear repulsion after empirical dispersion term =     2664.9227787285 Hartrees.
 One-electron integrals computed using PRISM.
   1 Symmetry operations used in ECPInt.
 ECPInt:  NShTT=   44551 NPrTT=  145020 LenC2=   37052 LenP2D=   82158.
 LDataN:  DoStor=T MaxTD1= 6 Len=  172
 NBasis=   758 RedAO= T EigKep=  1.66D-04  NBF=   758
 NBsUse=   758 1.00D-06 EigRej= -1.00D+00 NBFU=   758
 ExpMin= 2.68D-02 ExpMax= 1.73D+05 ExpMxC= 5.89D+03 IAcc=3 IRadAn=         5 AccDes= 0.00D+00
 Harris functional with IExCor= 1009 and IRadAn=       5 diagonalized for initial guess.
 HarFok:  IExCor= 1009 AccDes= 0.00D+00 IRadAn=         5 IDoV= 1 UseB2=F ITyADJ=14
 ICtDFT=  3500011 ScaDFX=  1.000000  1.000000  1.000000  1.000000
 FoFCou: FMM=F IPFlag=           0 FMFlag=      100000 FMFlg1=           0
         NFxFlg=           0 DoJE=T BraDBF=F KetDBF=T FulRan=T
         wScrn=  0.000000 ICntrl=       500 IOpCl=  0 I1Cent=   200000004 NGrid=           0
         NMat0=    1 NMatS0=      1 NMatT0=    0 NMatD0=    1 NMtDS0=    0 NMtDT0=    0
 Petite list used in FoFCou.
 Initial guess <Sx>= 0.0000 <Sy>= 0.0000 <Sz>= 0.0000 <S**2>=-0.0000 S=-0.0000
 Requested convergence on RMS density matrix=1.00D-08 within  32 cycles.
 Requested convergence on MAX density matrix=1.00D-06.
 Requested convergence on             energy=1.00D-06.
 No special actions if energy rises.
 SCF Done:  E(UM06) =  -2459.85643337     A.U. after   13 cycles
            NFock= 13  Conv=0.47D-08     -V/T= 2.0030
 <Sx>= 0.0000 <Sy>= 0.0000 <Sz>= 0.0000 <S**2>=-0.0000 S=-0.0000
 <L.S>= 0.000000000000E+00
 Annihilation of the first spin contaminant:
 S**2 before annihilation    -0.0000,   after     0.0000
 QCSCF skips out because SCF is already converged.

 **********************************************************************

            Population analysis using the SCF Density.

 **********************************************************************

 Orbital symmetries:
 Alpha Orbitals:
       Occupied  (A) (A) (A) (A) (A) (A) (A) (A) (A) (A) (A) (A)
                 (A) (A) (A) (A) (A) (A) (A) (A) (A) (A) (A) (A)
                 (A) (A) (A) (A) (A) (A) (A) (A) (A) (A) (A) (A)
                 (A) (A) (A) (A) (A) (A) (A) (A) (A) (A) (A) (A)
                 (A) (A) (A) (A) (A) (A) (A) (A) (A) (A) (A) (A)
                 (A) (A) (A) (A) (A) (A) (A) (A) (A) (A) (A) (A)
                 (A) (A) (A) (A) (A) (A) (A) (A) (A) (A) (A) (A)
                 (A) (A) (A) (A) (A) (A) (A) (A) (A) (A) (A) (A)
                 (A)
       Virtual   (A) (A) (A) (A) (A) (A) (A) (A) (A) (A) (A) (A)
                 (A) (A) (A) (A) (A) (A) (A) (A) (A) (A) (A) (A)
                 (A) (A) (A) (A) (A) (A) (A) (A) (A) (A) (A) (A)
                 (A) (A) (A) (A) (A) (A) (A) (A) (A) (A) (A) (A)
                 (A) (A) (A) (A) (A) (A) (A) (A) (A) (A) (A) (A)
                 (A) (A) (A) (A) (A) (A) (A) (A) (A) (A) (A) (A)
                 (A) (A) (A) (A) (A) (A) (A) (A) (A) (A) (A) (A)
                 (A) (A) (A) (A) (A) (A) (A) (A) (A) (A) (A) (A)
                 (A) (A) (A) (A) (A) (A) (A) (A) (A) (A) (A) (A)
                 (A) (A) (A) (A) (A) (A) (A) (A) (A) (A) (A) (A)
                 (A) (A) (A) (A) (A) (A) (A) (A) (A) (A) (A) (A)
                 (A) (A) (A) (A) (A) (A) (A) (A) (A) (A) (A) (A)
                 (A) (A) (A) (A) (A) (A) (A) (A) (A) (A) (A) (A)
                 (A) (A) (A) (A) (A) (A) (A) (A) (A) (A) (A) (A)
                 (A) (A) (A) (A) (A) (A) (A) (A) (A) (A) (A) (A)
                 (A) (A) (A) (A) (A) (A) (A) (A) (A) (A) (A) (A)
                 (A) (A) (A) (A) (A) (A) (A) (A) (A) (A) (A) (A)
                 (A) (A) (A) (A) (A) (A) (A) (A) (A) (A) (A) (A)
                 (A) (A) (A) (A) (A) (A) (A) (A) (A) (A) (A) (A)
                 (A) (A) (A) (A) (A) (A) (A) (A) (A) (A) (A) (A)
                 (A) (A) (A) (A) (A) (A) (A) (A) (A) (A) (A) (A)
                 (A) (A) (A) (A) (A) (A) (A) (A) (A) (A) (A) (A)
                 (A) (A) (A) (A) (A) (A) (A) (A) (A) (A) (A) (A)
                 (A) (A) (A) (A) (A) (A) (A) (A) (A) (A) (A) (A)
                 (A) (A) (A) (A) (A) (A) (A) (A) (A) (A) (A) (A)
                 (A) (A) (A) (A) (A) (A) (A) (A) (A) (A) (A) (A)
                 (A) (A) (A) (A) (A) (A) (A) (A) (A) (A) (A) (A)
                 (A) (A) (A) (A) (A) (A) (A) (A) (A) (A) (A) (A)
                 (A) (A) (A) (A) (A) (A) (A) (A) (A) (A) (A) (A)
                 (A) (A) (A) (A) (A) (A) (A) (A) (A) (A) (A) (A)
                 (A) (A) (A) (A) (A) (A) (A) (A) (A) (A) (A) (A)
                 (A) (A) (A) (A) (A) (A) (A) (A) (A) (A) (A) (A)
                 (A) (A) (A) (A) (A) (A) (A) (A) (A) (A) (A) (A)
                 (A) (A) (A) (A) (A) (A) (A) (A) (A) (A) (A) (A)
                 (A) (A) (A) (A) (A) (A) (A) (A) (A) (A) (A) (A)
                 (A) (A) (A) (A) (A) (A) (A) (A) (A) (A) (A) (A)
                 (A) (A) (A) (A) (A) (A) (A) (A) (A) (A) (A) (A)
                 (A) (A) (A) (A) (A) (A) (A) (A) (A) (A) (A) (A)
                 (A) (A) (A) (A) (A) (A) (A) (A) (A) (A) (A) (A)
                 (A) (A) (A) (A) (A) (A) (A) (A) (A) (A) (A) (A)
                 (A) (A) (A) (A) (A) (A) (A) (A) (A) (A) (A) (A)
                 (A) (A) (A) (A) (A) (A) (A) (A) (A) (A) (A) (A)
                 (A) (A) (A) (A) (A) (A) (A) (A) (A) (A) (A) (A)
                 (A) (A) (A) (A) (A) (A) (A) (A) (A) (A) (A) (A)
                 (A) (A) (A) (A) (A) (A) (A) (A) (A) (A) (A) (A)
                 (A) (A) (A) (A) (A) (A) (A) (A) (A) (A) (A) (A)
                 (A) (A) (A) (A) (A) (A) (A) (A) (A) (A) (A) (A)
                 (A) (A) (A) (A) (A) (A) (A) (A) (A) (A) (A) (A)
                 (A) (A) (A) (A) (A) (A) (A) (A) (A) (A) (A) (A)
                 (A) (A) (A) (A) (A) (A) (A) (A) (A) (A) (A) (A)
                 (A) (A) (A) (A) (A) (A) (A) (A) (A) (A) (A) (A)
                 (A) (A) (A) (A) (A) (A) (A) (A) (A) (A) (A) (A)
                 (A) (A) (A) (A) (A) (A) (A) (A) (A) (A) (A) (A)
                 (A) (A) (A) (A) (A) (A) (A) (A) (A) (A) (A) (A)
                 (A) (A) (A) (A) (A) (A) (A) (A) (A) (A) (A) (A)
                 (A)
 Beta  Orbitals:
       Occupied  (A) (A) (A) (A) (A) (A) (A) (A) (A) (A) (A) (A)
                 (A) (A) (A) (A) (A) (A) (A) (A) (A) (A) (A) (A)
                 (A) (A) (A) (A) (A) (A) (A) (A) (A) (A) (A) (A)
                 (A) (A) (A) (A) (A) (A) (A) (A) (A) (A) (A) (A)
                 (A) (A) (A) (A) (A) (A) (A) (A) (A) (A) (A) (A)
                 (A) (A) (A) (A) (A) (A) (A) (A) (A) (A) (A) (A)
                 (A) (A) (A) (A) (A) (A) (A) (A) (A) (A) (A) (A)
                 (A) (A) (A) (A) (A) (A) (A) (A) (A) (A) (A) (A)
                 (A)
       Virtual   (A) (A) (A) (A) (A) (A) (A) (A) (A) (A) (A) (A)
                 (A) (A) (A) (A) (A) (A) (A) (A) (A) (A) (A) (A)
                 (A) (A) (A) (A) (A) (A) (A) (A) (A) (A) (A) (A)
                 (A) (A) (A) (A) (A) (A) (A) (A) (A) (A) (A) (A)
                 (A) (A) (A) (A) (A) (A) (A) (A) (A) (A) (A) (A)
                 (A) (A) (A) (A) (A) (A) (A) (A) (A) (A) (A) (A)
                 (A) (A) (A) (A) (A) (A) (A) (A) (A) (A) (A) (A)
                 (A) (A) (A) (A) (A) (A) (A) (A) (A) (A) (A) (A)
                 (A) (A) (A) (A) (A) (A) (A) (A) (A) (A) (A) (A)
                 (A) (A) (A) (A) (A) (A) (A) (A) (A) (A) (A) (A)
                 (A) (A) (A) (A) (A) (A) (A) (A) (A) (A) (A) (A)
                 (A) (A) (A) (A) (A) (A) (A) (A) (A) (A) (A) (A)
                 (A) (A) (A) (A) (A) (A) (A) (A) (A) (A) (A) (A)
                 (A) (A) (A) (A) (A) (A) (A) (A) (A) (A) (A) (A)
                 (A) (A) (A) (A) (A) (A) (A) (A) (A) (A) (A) (A)
                 (A) (A) (A) (A) (A) (A) (A) (A) (A) (A) (A) (A)
                 (A) (A) (A) (A) (A) (A) (A) (A) (A) (A) (A) (A)
                 (A) (A) (A) (A) (A) (A) (A) (A) (A) (A) (A) (A)
                 (A) (A) (A) (A) (A) (A) (A) (A) (A) (A) (A) (A)
                 (A) (A) (A) (A) (A) (A) (A) (A) (A) (A) (A) (A)
                 (A) (A) (A) (A) (A) (A) (A) (A) (A) (A) (A) (A)
                 (A) (A) (A) (A) (A) (A) (A) (A) (A) (A) (A) (A)
                 (A) (A) (A) (A) (A) (A) (A) (A) (A) (A) (A) (A)
                 (A) (A) (A) (A) (A) (A) (A) (A) (A) (A) (A) (A)
                 (A) (A) (A) (A) (A) (A) (A) (A) (A) (A) (A) (A)
                 (A) (A) (A) (A) (A) (A) (A) (A) (A) (A) (A) (A)
                 (A) (A) (A) (A) (A) (A) (A) (A) (A) (A) (A) (A)
                 (A) (A) (A) (A) (A) (A) (A) (A) (A) (A) (A) (A)
                 (A) (A) (A) (A) (A) (A) (A) (A) (A) (A) (A) (A)
                 (A) (A) (A) (A) (A) (A) (A) (A) (A) (A) (A) (A)
                 (A) (A) (A) (A) (A) (A) (A) (A) (A) (A) (A) (A)
                 (A) (A) (A) (A) (A) (A) (A) (A) (A) (A) (A) (A)
                 (A) (A) (A) (A) (A) (A) (A) (A) (A) (A) (A) (A)
                 (A) (A) (A) (A) (A) (A) (A) (A) (A) (A) (A) (A)
                 (A) (A) (A) (A) (A) (A) (A) (A) (A) (A) (A) (A)
                 (A) (A) (A) (A) (A) (A) (A) (A) (A) (A) (A) (A)
                 (A) (A) (A) (A) (A) (A) (A) (A) (A) (A) (A) (A)
                 (A) (A) (A) (A) (A) (A) (A) (A) (A) (A) (A) (A)
                 (A) (A) (A) (A) (A) (A) (A) (A) (A) (A) (A) (A)
                 (A) (A) (A) (A) (A) (A) (A) (A) (A) (A) (A) (A)
                 (A) (A) (A) (A) (A) (A) (A) (A) (A) (A) (A) (A)
                 (A) (A) (A) (A) (A) (A) (A) (A) (A) (A) (A) (A)
                 (A) (A) (A) (A) (A) (A) (A) (A) (A) (A) (A) (A)
                 (A) (A) (A) (A) (A) (A) (A) (A) (A) (A) (A) (A)
                 (A) (A) (A) (A) (A) (A) (A) (A) (A) (A) (A) (A)
                 (A) (A) (A) (A) (A) (A) (A) (A) (A) (A) (A) (A)
                 (A) (A) (A) (A) (A) (A) (A) (A) (A) (A) (A) (A)
                 (A) (A) (A) (A) (A) (A) (A) (A) (A) (A) (A) (A)
                 (A) (A) (A) (A) (A) (A) (A) (A) (A) (A) (A) (A)
                 (A) (A) (A) (A) (A) (A) (A) (A) (A) (A) (A) (A)
                 (A) (A) (A) (A) (A) (A) (A) (A) (A) (A) (A) (A)
                 (A) (A) (A) (A) (A) (A) (A) (A) (A) (A) (A) (A)
                 (A) (A) (A) (A) (A) (A) (A) (A) (A) (A) (A) (A)
                 (A) (A) (A) (A) (A) (A) (A) (A) (A) (A) (A) (A)
                 (A) (A) (A) (A) (A) (A) (A) (A) (A) (A) (A) (A)
                 (A)
 The electronic state is 1-A.
 Alpha  occ. eigenvalues -- -145.63436 -77.47215 -77.46755 -19.40724 -19.37009
 Alpha  occ. eigenvalues --  -19.36798 -19.36605 -19.35810 -19.34987 -19.31388
 Alpha  occ. eigenvalues --  -19.30592 -19.30104 -19.29206 -15.63133 -14.54401
 Alpha  occ. eigenvalues --  -14.49732 -12.70017 -12.70004 -12.69941 -10.53195
 Alpha  occ. eigenvalues --  -10.46188 -10.42555 -10.41028 -10.40147 -10.37600
 Alpha  occ. eigenvalues --   -6.87717  -6.87278  -4.99838  -4.99674  -4.99430
 Alpha  occ. eigenvalues --   -4.99377  -4.99185  -4.99064  -1.88300  -1.29371
 Alpha  occ. eigenvalues --   -1.23148  -1.22790  -1.21306  -1.20474  -1.18537
 Alpha  occ. eigenvalues --   -1.17732  -1.16226  -1.15182  -1.13691  -1.12394
 Alpha  occ. eigenvalues --   -1.11162  -1.10231  -1.08174  -1.04470  -0.91143
 Alpha  occ. eigenvalues --   -0.86907  -0.84135  -0.80388  -0.77632  -0.75406
 Alpha  occ. eigenvalues --   -0.74972  -0.71393  -0.69318  -0.68008  -0.67844
 Alpha  occ. eigenvalues --   -0.66564  -0.65765  -0.64151  -0.63557  -0.62402
 Alpha  occ. eigenvalues --   -0.61942  -0.60658  -0.60112  -0.59866  -0.59178
 Alpha  occ. eigenvalues --   -0.58497  -0.57475  -0.56852  -0.55539  -0.55242
 Alpha  occ. eigenvalues --   -0.54668  -0.54041  -0.53927  -0.53492  -0.52211
 Alpha  occ. eigenvalues --   -0.51773  -0.50767  -0.50158  -0.50098  -0.49359
 Alpha  occ. eigenvalues --   -0.48842  -0.48701  -0.46992  -0.46691  -0.46407
 Alpha  occ. eigenvalues --   -0.45680  -0.44826  -0.42887  -0.42353  -0.41423
 Alpha  occ. eigenvalues --   -0.40297  -0.35067
 Alpha virt. eigenvalues --   -0.14650  -0.13417  -0.11734  -0.11044  -0.10739
 Alpha virt. eigenvalues --   -0.09679  -0.08422  -0.07861  -0.07295  -0.06233
 Alpha virt. eigenvalues --   -0.05904  -0.04854  -0.04739  -0.04485  -0.03659
 Alpha virt. eigenvalues --   -0.03617  -0.03043  -0.02459  -0.02062  -0.01637
 Alpha virt. eigenvalues --   -0.01307  -0.00644  -0.00483  -0.00124   0.00465
 Alpha virt. eigenvalues --    0.01199   0.01442   0.01945   0.02361   0.02831
 Alpha virt. eigenvalues --    0.03344   0.03434   0.04103   0.04699   0.04963
 Alpha virt. eigenvalues --    0.06332   0.06623   0.07137   0.07769   0.08429
 Alpha virt. eigenvalues --    0.08807   0.09239   0.09445   0.10611   0.10899
 Alpha virt. eigenvalues --    0.11369   0.12040   0.12238   0.12635   0.13850
 Alpha virt. eigenvalues --    0.14101   0.15475   0.15559   0.16126   0.16304
 Alpha virt. eigenvalues --    0.16814   0.17213   0.17987   0.19046   0.19153
 Alpha virt. eigenvalues --    0.19775   0.20314   0.20750   0.21184   0.22011
 Alpha virt. eigenvalues --    0.22457   0.22980   0.23528   0.23610   0.23946
 Alpha virt. eigenvalues --    0.24490   0.25451   0.25651   0.25926   0.26129
 Alpha virt. eigenvalues --    0.26399   0.27287   0.27832   0.28043   0.28747
 Alpha virt. eigenvalues --    0.29134   0.29242   0.29655   0.29800   0.30466
 Alpha virt. eigenvalues --    0.31195   0.31563   0.32154   0.32633   0.33301
 Alpha virt. eigenvalues --    0.33727   0.33948   0.34479   0.35039   0.35488
 Alpha virt. eigenvalues --    0.36026   0.36363   0.37513   0.37662   0.38519
 Alpha virt. eigenvalues --    0.38718   0.39303   0.39949   0.40190   0.40593
 Alpha virt. eigenvalues --    0.40954   0.41687   0.41910   0.42586   0.43190
 Alpha virt. eigenvalues --    0.43943   0.44376   0.45533   0.46086   0.46266
 Alpha virt. eigenvalues --    0.47410   0.47583   0.48924   0.49906   0.50120
 Alpha virt. eigenvalues --    0.50796   0.52533   0.53014   0.53570   0.54135
 Alpha virt. eigenvalues --    0.55145   0.55174   0.55869   0.56493   0.57222
 Alpha virt. eigenvalues --    0.58084   0.59178   0.59419   0.60069   0.61059
 Alpha virt. eigenvalues --    0.61496   0.62308   0.62507   0.63923   0.64234
 Alpha virt. eigenvalues --    0.65250   0.65617   0.65946   0.66764   0.67578
 Alpha virt. eigenvalues --    0.68423   0.69522   0.69898   0.69996   0.71198
 Alpha virt. eigenvalues --    0.71432   0.72669   0.73337   0.74037   0.75161
 Alpha virt. eigenvalues --    0.75475   0.76689   0.77207   0.77445   0.78989
 Alpha virt. eigenvalues --    0.79445   0.79709   0.81632   0.82937   0.83501
 Alpha virt. eigenvalues --    0.84419   0.84837   0.86098   0.86805   0.87921
 Alpha virt. eigenvalues --    0.89307   0.89851   0.90812   0.91480   0.93045
 Alpha virt. eigenvalues --    0.94836   0.95289   0.96610   0.98697   0.99247
 Alpha virt. eigenvalues --    0.99701   1.00785   1.02181   1.02881   1.03943
 Alpha virt. eigenvalues --    1.05831   1.05992   1.06932   1.08097   1.10032
 Alpha virt. eigenvalues --    1.11407   1.11878   1.12390   1.12502   1.13684
 Alpha virt. eigenvalues --    1.15249   1.16796   1.17457   1.18358   1.18861
 Alpha virt. eigenvalues --    1.19451   1.20254   1.20688   1.22367   1.22842
 Alpha virt. eigenvalues --    1.23584   1.25080   1.25309   1.25685   1.26122
 Alpha virt. eigenvalues --    1.28031   1.28314   1.28747   1.29319   1.29957
 Alpha virt. eigenvalues --    1.31478   1.31885   1.32333   1.33694   1.34280
 Alpha virt. eigenvalues --    1.35120   1.35689   1.37328   1.37356   1.38060
 Alpha virt. eigenvalues --    1.38485   1.38808   1.39060   1.40751   1.42301
 Alpha virt. eigenvalues --    1.43260   1.44205   1.44240   1.45582   1.45728
 Alpha virt. eigenvalues --    1.46316   1.46853   1.47296   1.48108   1.48661
 Alpha virt. eigenvalues --    1.49658   1.49964   1.51423   1.52309   1.52747
 Alpha virt. eigenvalues --    1.53191   1.54505   1.55595   1.56417   1.57491
 Alpha virt. eigenvalues --    1.58990   1.59779   1.60766   1.62235   1.62570
 Alpha virt. eigenvalues --    1.62964   1.63827   1.64520   1.65724   1.67051
 Alpha virt. eigenvalues --    1.68269   1.69427   1.69763   1.70755   1.71304
 Alpha virt. eigenvalues --    1.72139   1.73947   1.74722   1.75034   1.75776
 Alpha virt. eigenvalues --    1.76676   1.77301   1.78222   1.79125   1.79856
 Alpha virt. eigenvalues --    1.80688   1.81025   1.81517   1.82781   1.83225
 Alpha virt. eigenvalues --    1.83946   1.84074   1.84849   1.85501   1.85663
 Alpha virt. eigenvalues --    1.86661   1.87288   1.88161   1.89237   1.89496
 Alpha virt. eigenvalues --    1.90669   1.90873   1.91887   1.93295   1.93860
 Alpha virt. eigenvalues --    1.94110   1.95132   1.95699   1.96275   1.97586
 Alpha virt. eigenvalues --    1.98590   1.99315   2.00306   2.00397   2.01844
 Alpha virt. eigenvalues --    2.02461   2.03272   2.04380   2.04983   2.05789
 Alpha virt. eigenvalues --    2.07800   2.07950   2.08146   2.08586   2.10452
 Alpha virt. eigenvalues --    2.11440   2.12098   2.12440   2.13565   2.14596
 Alpha virt. eigenvalues --    2.16212   2.16590   2.16996   2.17455   2.18525
 Alpha virt. eigenvalues --    2.19431   2.19818   2.20697   2.22872   2.23727
 Alpha virt. eigenvalues --    2.24341   2.25493   2.25684   2.26298   2.27273
 Alpha virt. eigenvalues --    2.28316   2.29763   2.29876   2.31212   2.32097
 Alpha virt. eigenvalues --    2.32953   2.34602   2.35606   2.36645   2.37249
 Alpha virt. eigenvalues --    2.38193   2.38814   2.40302   2.41024   2.42695
 Alpha virt. eigenvalues --    2.45709   2.45994   2.47271   2.47832   2.49334
 Alpha virt. eigenvalues --    2.49915   2.51499   2.52387   2.53501   2.54737
 Alpha virt. eigenvalues --    2.55213   2.57655   2.58476   2.58807   2.61072
 Alpha virt. eigenvalues --    2.61938   2.62399   2.64098   2.64737   2.65545
 Alpha virt. eigenvalues --    2.66318   2.68683   2.70521   2.71202   2.72888
 Alpha virt. eigenvalues --    2.73089   2.74241   2.75615   2.76788   2.77293
 Alpha virt. eigenvalues --    2.78437   2.79376   2.81894   2.82183   2.82655
 Alpha virt. eigenvalues --    2.83948   2.84659   2.85236   2.85731   2.87307
 Alpha virt. eigenvalues --    2.88188   2.89381   2.90139   2.91259   2.92460
 Alpha virt. eigenvalues --    2.94023   2.94364   2.95228   2.95442   2.95646
 Alpha virt. eigenvalues --    2.97622   2.98416   2.98887   2.99999   3.00427
 Alpha virt. eigenvalues --    3.00850   3.03628   3.04058   3.04397   3.06963
 Alpha virt. eigenvalues --    3.07933   3.08682   3.09131   3.09960   3.11078
 Alpha virt. eigenvalues --    3.12025   3.12704   3.14435   3.15020   3.15631
 Alpha virt. eigenvalues --    3.16109   3.17207   3.17625   3.20149   3.20771
 Alpha virt. eigenvalues --    3.21529   3.23272   3.24180   3.26066   3.26357
 Alpha virt. eigenvalues --    3.27201   3.27992   3.29892   3.30614   3.31225
 Alpha virt. eigenvalues --    3.32509   3.33636   3.34950   3.35802   3.37278
 Alpha virt. eigenvalues --    3.39506   3.40479   3.41454   3.43340   3.43834
 Alpha virt. eigenvalues --    3.45108   3.46665   3.49626   3.50825   3.51268
 Alpha virt. eigenvalues --    3.52627   3.53513   3.54326   3.60272   3.61300
 Alpha virt. eigenvalues --    3.63549   3.65171   3.65554   3.66262   3.66715
 Alpha virt. eigenvalues --    3.69587   3.69989   3.70827   3.71068   3.74452
 Alpha virt. eigenvalues --    3.78261   3.79946   3.81336   3.82315   3.83360
 Alpha virt. eigenvalues --    3.84147   3.86107   3.89156   3.89838   3.90962
 Alpha virt. eigenvalues --    3.91982   3.94861   3.97636   3.98596   4.00973
 Alpha virt. eigenvalues --    4.03112   4.08659   4.11819   4.17737   4.21388
 Alpha virt. eigenvalues --    4.27524   4.29946   4.32152   4.43662   4.44199
 Alpha virt. eigenvalues --    4.48400   4.55310   4.61639   4.63690   4.69061
 Alpha virt. eigenvalues --    4.74185   4.75692   4.87799   4.88112   4.92048
 Alpha virt. eigenvalues --    4.94027   4.96375   4.97681   4.98034   4.98454
 Alpha virt. eigenvalues --    4.99559   5.00572   5.01647   5.02456   5.02801
 Alpha virt. eigenvalues --    5.02965   5.03542   5.03836   5.04367   5.05552
 Alpha virt. eigenvalues --    5.06061   5.06192   5.06271   5.06733   5.06841
 Alpha virt. eigenvalues --    5.07509   5.07860   5.07929   5.08331   5.09010
 Alpha virt. eigenvalues --    5.09565   5.10857   5.11805   5.12314   5.12608
 Alpha virt. eigenvalues --    5.12859   5.13547   5.14177   5.15061   5.16485
 Alpha virt. eigenvalues --    5.16997   5.20350   5.21789   5.22987   5.23752
 Alpha virt. eigenvalues --    5.24587   5.25138   5.25608   5.25832   5.26152
 Alpha virt. eigenvalues --    5.28641   5.29417   5.31403   5.34066   5.34425
 Alpha virt. eigenvalues --    5.35241   5.36744   5.37234   5.37370   5.39413
 Alpha virt. eigenvalues --    5.39714   5.41531   5.41953   5.43131   5.45797
 Alpha virt. eigenvalues --    5.47887   5.48057   5.48325   5.51007   5.51608
 Alpha virt. eigenvalues --    5.52592   5.60694   5.66281   5.66980   5.72299
 Alpha virt. eigenvalues --    5.78453   5.80233   5.92102   5.97371   6.01385
 Alpha virt. eigenvalues --    6.02925   6.06656   6.06867   6.07356   6.08563
 Alpha virt. eigenvalues --    6.09451   6.21581   6.22148   6.24010   6.27364
 Alpha virt. eigenvalues --    6.31575   6.31778   6.33230   6.33372   6.35101
 Alpha virt. eigenvalues --    6.36347   6.37908   6.39151   6.40633   6.44498
 Alpha virt. eigenvalues --    6.45510   6.46071   6.47684   6.49757   6.51391
 Alpha virt. eigenvalues --    6.51751   6.53601   6.55020   6.57093   6.58336
 Alpha virt. eigenvalues --    6.60289   6.61132   6.61323   6.66799   6.67681
 Alpha virt. eigenvalues --    6.68779   6.69345   6.70260   6.70783   6.71538
 Alpha virt. eigenvalues --    6.72923   6.73486   6.74006   6.76429   6.78855
 Alpha virt. eigenvalues --    6.80386   6.81358   6.88193   6.88543   6.91108
 Alpha virt. eigenvalues --    6.91343   6.96575   6.99094   7.00739   7.01834
 Alpha virt. eigenvalues --    7.03183   7.05032   7.12277   7.17925   7.22163
 Alpha virt. eigenvalues --    7.73918   7.77075   7.91103   7.94012   8.05432
 Alpha virt. eigenvalues --    8.12274  16.59660  16.68992  22.25451  22.30960
 Alpha virt. eigenvalues --   22.33970  22.38726  23.18791  23.33317  32.22258
 Alpha virt. eigenvalues --   32.27487  43.39532  43.48275  43.52515  43.57810
 Alpha virt. eigenvalues --   43.62784  43.69667  43.71959  43.75582  43.80001
 Alpha virt. eigenvalues --   43.99960
  Beta  occ. eigenvalues -- -145.63436 -77.47215 -77.46755 -19.40724 -19.37009
  Beta  occ. eigenvalues --  -19.36798 -19.36605 -19.35810 -19.34987 -19.31388
  Beta  occ. eigenvalues --  -19.30592 -19.30104 -19.29206 -15.63133 -14.54401
  Beta  occ. eigenvalues --  -14.49732 -12.70017 -12.70004 -12.69941 -10.53195
  Beta  occ. eigenvalues --  -10.46188 -10.42555 -10.41028 -10.40147 -10.37600
  Beta  occ. eigenvalues --   -6.87717  -6.87278  -4.99838  -4.99674  -4.99430
  Beta  occ. eigenvalues --   -4.99377  -4.99185  -4.99064  -1.88300  -1.29371
  Beta  occ. eigenvalues --   -1.23148  -1.22790  -1.21306  -1.20474  -1.18537
  Beta  occ. eigenvalues --   -1.17732  -1.16226  -1.15182  -1.13691  -1.12394
  Beta  occ. eigenvalues --   -1.11162  -1.10231  -1.08174  -1.04470  -0.91143
  Beta  occ. eigenvalues --   -0.86907  -0.84135  -0.80388  -0.77632  -0.75406
  Beta  occ. eigenvalues --   -0.74972  -0.71393  -0.69318  -0.68008  -0.67844
  Beta  occ. eigenvalues --   -0.66564  -0.65765  -0.64151  -0.63557  -0.62402
  Beta  occ. eigenvalues --   -0.61942  -0.60658  -0.60112  -0.59866  -0.59178
  Beta  occ. eigenvalues --   -0.58497  -0.57475  -0.56852  -0.55539  -0.55242
  Beta  occ. eigenvalues --   -0.54668  -0.54041  -0.53927  -0.53492  -0.52211
  Beta  occ. eigenvalues --   -0.51773  -0.50767  -0.50158  -0.50098  -0.49359
  Beta  occ. eigenvalues --   -0.48842  -0.48701  -0.46992  -0.46691  -0.46407
  Beta  occ. eigenvalues --   -0.45680  -0.44826  -0.42887  -0.42353  -0.41423
  Beta  occ. eigenvalues --   -0.40297  -0.35067
  Beta virt. eigenvalues --   -0.14650  -0.13417  -0.11734  -0.11044  -0.10739
  Beta virt. eigenvalues --   -0.09679  -0.08422  -0.07861  -0.07295  -0.06233
  Beta virt. eigenvalues --   -0.05904  -0.04854  -0.04739  -0.04485  -0.03659
  Beta virt. eigenvalues --   -0.03617  -0.03043  -0.02459  -0.02062  -0.01637
  Beta virt. eigenvalues --   -0.01307  -0.00644  -0.00483  -0.00124   0.00465
  Beta virt. eigenvalues --    0.01199   0.01442   0.01945   0.02361   0.02831
  Beta virt. eigenvalues --    0.03344   0.03434   0.04103   0.04699   0.04963
  Beta virt. eigenvalues --    0.06332   0.06623   0.07137   0.07769   0.08429
  Beta virt. eigenvalues --    0.08807   0.09239   0.09445   0.10611   0.10899
  Beta virt. eigenvalues --    0.11369   0.12040   0.12238   0.12635   0.13850
  Beta virt. eigenvalues --    0.14101   0.15475   0.15559   0.16126   0.16304
  Beta virt. eigenvalues --    0.16814   0.17213   0.17987   0.19046   0.19153
  Beta virt. eigenvalues --    0.19775   0.20314   0.20750   0.21184   0.22011
  Beta virt. eigenvalues --    0.22457   0.22980   0.23528   0.23610   0.23946
  Beta virt. eigenvalues --    0.24490   0.25451   0.25651   0.25926   0.26129
  Beta virt. eigenvalues --    0.26399   0.27287   0.27832   0.28043   0.28747
  Beta virt. eigenvalues --    0.29134   0.29242   0.29655   0.29800   0.30466
  Beta virt. eigenvalues --    0.31195   0.31563   0.32154   0.32633   0.33301
  Beta virt. eigenvalues --    0.33727   0.33948   0.34479   0.35039   0.35488
  Beta virt. eigenvalues --    0.36026   0.36363   0.37513   0.37662   0.38519
  Beta virt. eigenvalues --    0.38718   0.39303   0.39949   0.40190   0.40593
  Beta virt. eigenvalues --    0.40954   0.41687   0.41910   0.42586   0.43190
  Beta virt. eigenvalues --    0.43943   0.44376   0.45533   0.46086   0.46266
  Beta virt. eigenvalues --    0.47410   0.47583   0.48924   0.49906   0.50120
  Beta virt. eigenvalues --    0.50796   0.52533   0.53014   0.53570   0.54135
  Beta virt. eigenvalues --    0.55145   0.55174   0.55869   0.56493   0.57222
  Beta virt. eigenvalues --    0.58084   0.59178   0.59419   0.60069   0.61059
  Beta virt. eigenvalues --    0.61496   0.62308   0.62507   0.63923   0.64234
  Beta virt. eigenvalues --    0.65250   0.65617   0.65946   0.66764   0.67578
  Beta virt. eigenvalues --    0.68423   0.69522   0.69898   0.69996   0.71198
  Beta virt. eigenvalues --    0.71432   0.72669   0.73337   0.74037   0.75161
  Beta virt. eigenvalues --    0.75475   0.76689   0.77207   0.77445   0.78989
  Beta virt. eigenvalues --    0.79445   0.79709   0.81632   0.82937   0.83501
  Beta virt. eigenvalues --    0.84419   0.84837   0.86098   0.86805   0.87921
  Beta virt. eigenvalues --    0.89307   0.89851   0.90812   0.91480   0.93045
  Beta virt. eigenvalues --    0.94836   0.95289   0.96610   0.98697   0.99247
  Beta virt. eigenvalues --    0.99701   1.00785   1.02181   1.02881   1.03943
  Beta virt. eigenvalues --    1.05831   1.05992   1.06932   1.08097   1.10032
  Beta virt. eigenvalues --    1.11407   1.11878   1.12390   1.12502   1.13684
  Beta virt. eigenvalues --    1.15249   1.16796   1.17457   1.18358   1.18861
  Beta virt. eigenvalues --    1.19451   1.20254   1.20688   1.22367   1.22842
  Beta virt. eigenvalues --    1.23584   1.25080   1.25309   1.25685   1.26122
  Beta virt. eigenvalues --    1.28031   1.28314   1.28747   1.29319   1.29957
  Beta virt. eigenvalues --    1.31478   1.31885   1.32333   1.33694   1.34280
  Beta virt. eigenvalues --    1.35120   1.35689   1.37328   1.37356   1.38060
  Beta virt. eigenvalues --    1.38485   1.38808   1.39060   1.40751   1.42301
  Beta virt. eigenvalues --    1.43260   1.44205   1.44240   1.45582   1.45728
  Beta virt. eigenvalues --    1.46316   1.46853   1.47296   1.48108   1.48661
  Beta virt. eigenvalues --    1.49658   1.49964   1.51423   1.52309   1.52747
  Beta virt. eigenvalues --    1.53191   1.54505   1.55595   1.56417   1.57491
  Beta virt. eigenvalues --    1.58990   1.59779   1.60766   1.62235   1.62570
  Beta virt. eigenvalues --    1.62964   1.63827   1.64520   1.65724   1.67051
  Beta virt. eigenvalues --    1.68269   1.69427   1.69763   1.70755   1.71304
  Beta virt. eigenvalues --    1.72139   1.73947   1.74722   1.75034   1.75776
  Beta virt. eigenvalues --    1.76676   1.77301   1.78222   1.79125   1.79856
  Beta virt. eigenvalues --    1.80688   1.81025   1.81517   1.82781   1.83225
  Beta virt. eigenvalues --    1.83946   1.84074   1.84849   1.85501   1.85663
  Beta virt. eigenvalues --    1.86661   1.87288   1.88161   1.89237   1.89496
  Beta virt. eigenvalues --    1.90669   1.90873   1.91887   1.93295   1.93860
  Beta virt. eigenvalues --    1.94110   1.95132   1.95699   1.96275   1.97586
  Beta virt. eigenvalues --    1.98590   1.99315   2.00306   2.00397   2.01844
  Beta virt. eigenvalues --    2.02461   2.03272   2.04380   2.04983   2.05789
  Beta virt. eigenvalues --    2.07800   2.07950   2.08146   2.08586   2.10452
  Beta virt. eigenvalues --    2.11440   2.12098   2.12440   2.13565   2.14596
  Beta virt. eigenvalues --    2.16212   2.16590   2.16996   2.17455   2.18525
  Beta virt. eigenvalues --    2.19431   2.19818   2.20697   2.22872   2.23727
  Beta virt. eigenvalues --    2.24341   2.25493   2.25684   2.26298   2.27273
  Beta virt. eigenvalues --    2.28316   2.29763   2.29876   2.31212   2.32097
  Beta virt. eigenvalues --    2.32953   2.34602   2.35606   2.36645   2.37249
  Beta virt. eigenvalues --    2.38193   2.38814   2.40302   2.41024   2.42695
  Beta virt. eigenvalues --    2.45709   2.45994   2.47271   2.47832   2.49334
  Beta virt. eigenvalues --    2.49915   2.51499   2.52387   2.53501   2.54737
  Beta virt. eigenvalues --    2.55213   2.57655   2.58476   2.58807   2.61072
  Beta virt. eigenvalues --    2.61938   2.62399   2.64098   2.64737   2.65545
  Beta virt. eigenvalues --    2.66318   2.68683   2.70521   2.71202   2.72888
  Beta virt. eigenvalues --    2.73089   2.74241   2.75615   2.76788   2.77293
  Beta virt. eigenvalues --    2.78437   2.79376   2.81894   2.82183   2.82655
  Beta virt. eigenvalues --    2.83948   2.84659   2.85236   2.85731   2.87307
  Beta virt. eigenvalues --    2.88188   2.89381   2.90139   2.91259   2.92460
  Beta virt. eigenvalues --    2.94023   2.94364   2.95228   2.95442   2.95646
  Beta virt. eigenvalues --    2.97622   2.98416   2.98887   2.99999   3.00427
  Beta virt. eigenvalues --    3.00850   3.03628   3.04058   3.04397   3.06963
  Beta virt. eigenvalues --    3.07933   3.08682   3.09131   3.09960   3.11078
  Beta virt. eigenvalues --    3.12025   3.12704   3.14435   3.15020   3.15631
  Beta virt. eigenvalues --    3.16109   3.17207   3.17625   3.20149   3.20771
  Beta virt. eigenvalues --    3.21529   3.23272   3.24180   3.26066   3.26357
  Beta virt. eigenvalues --    3.27201   3.27992   3.29892   3.30614   3.31225
  Beta virt. eigenvalues --    3.32509   3.33636   3.34950   3.35802   3.37278
  Beta virt. eigenvalues --    3.39506   3.40479   3.41454   3.43340   3.43834
  Beta virt. eigenvalues --    3.45108   3.46665   3.49626   3.50825   3.51268
  Beta virt. eigenvalues --    3.52627   3.53513   3.54326   3.60272   3.61300
  Beta virt. eigenvalues --    3.63549   3.65171   3.65554   3.66262   3.66715
  Beta virt. eigenvalues --    3.69587   3.69989   3.70827   3.71068   3.74452
  Beta virt. eigenvalues --    3.78261   3.79946   3.81336   3.82315   3.83360
  Beta virt. eigenvalues --    3.84147   3.86107   3.89156   3.89838   3.90962
  Beta virt. eigenvalues --    3.91982   3.94861   3.97636   3.98596   4.00973
  Beta virt. eigenvalues --    4.03112   4.08659   4.11819   4.17737   4.21388
  Beta virt. eigenvalues --    4.27524   4.29946   4.32152   4.43662   4.44199
  Beta virt. eigenvalues --    4.48400   4.55310   4.61639   4.63690   4.69061
  Beta virt. eigenvalues --    4.74185   4.75692   4.87799   4.88112   4.92048
  Beta virt. eigenvalues --    4.94027   4.96375   4.97681   4.98034   4.98454
  Beta virt. eigenvalues --    4.99559   5.00572   5.01647   5.02456   5.02801
  Beta virt. eigenvalues --    5.02965   5.03542   5.03836   5.04367   5.05552
  Beta virt. eigenvalues --    5.06061   5.06192   5.06271   5.06733   5.06841
  Beta virt. eigenvalues --    5.07509   5.07860   5.07929   5.08331   5.09010
  Beta virt. eigenvalues --    5.09565   5.10857   5.11805   5.12314   5.12608
  Beta virt. eigenvalues --    5.12859   5.13547   5.14177   5.15061   5.16485
  Beta virt. eigenvalues --    5.16997   5.20350   5.21789   5.22987   5.23752
  Beta virt. eigenvalues --    5.24587   5.25138   5.25608   5.25832   5.26152
  Beta virt. eigenvalues --    5.28641   5.29417   5.31403   5.34066   5.34425
  Beta virt. eigenvalues --    5.35241   5.36744   5.37234   5.37370   5.39413
  Beta virt. eigenvalues --    5.39714   5.41531   5.41953   5.43131   5.45797
  Beta virt. eigenvalues --    5.47887   5.48057   5.48325   5.51007   5.51608
  Beta virt. eigenvalues --    5.52592   5.60694   5.66281   5.66980   5.72299
  Beta virt. eigenvalues --    5.78453   5.80233   5.92102   5.97371   6.01385
  Beta virt. eigenvalues --    6.02925   6.06656   6.06867   6.07356   6.08563
  Beta virt. eigenvalues --    6.09451   6.21581   6.22148   6.24010   6.27364
  Beta virt. eigenvalues --    6.31575   6.31778   6.33230   6.33372   6.35101
  Beta virt. eigenvalues --    6.36347   6.37908   6.39151   6.40633   6.44498
  Beta virt. eigenvalues --    6.45510   6.46071   6.47684   6.49757   6.51391
  Beta virt. eigenvalues --    6.51751   6.53601   6.55020   6.57093   6.58336
  Beta virt. eigenvalues --    6.60289   6.61132   6.61323   6.66799   6.67681
  Beta virt. eigenvalues --    6.68779   6.69345   6.70260   6.70783   6.71538
  Beta virt. eigenvalues --    6.72923   6.73486   6.74006   6.76429   6.78855
  Beta virt. eigenvalues --    6.80386   6.81358   6.88193   6.88543   6.91108
[...]
 164406,-0.00424732,0.00061239,-0.00187070,-0.00009687,0.00000176,0.000
 66009,0.00096748,-0.00110660,-0.00078417,-0.00028033,-0.00007760,-0.00
 010190,-0.00009348,-0.00190872,-0.00021391,-0.00272934,-0.00024069,-0.
 00081955,0.00076013,0.03042079,-0.03758578,0.06914273,0.00035960,-0.00
 035759,-0.00011308,0.00004740,0.00006127,-0.00000475,-0.00006569,-0.00
 001742,-0.00001095,-0.00052047,-0.00005880,0.00014708,-0.00015384,0.00
 010259,0.00006022,-0.00000636,0.00001828,0.00000124,0.00018311,0.00007
 611,-0.00005056,-0.00005005,0.00000773,0.00003242,-0.00017026,-0.00006
 998,0.00004295,-0.00004976,-0.00006417,0.00002404,0.00001432,-0.000001
 84,-0.00001633,0.00034071,0.00051068,-0.00023480,0.00002227,-0.0000100
 4,0.00000503,-0.00002569,0.00000395,-0.00000109,-0.00000553,-0.0000081
 2,0.00000041,-0.00000940,-0.00000396,0.00000207,0.00000974,0.00000690,
 0.00000598,-0.00026389,-0.00018928,0.00002397,0.00006365,0.00002390,0.
 00013709,0.00012846,0.00009259,-0.00007785,0.00215266,0.00193475,-0.00
 207525,-0.00168405,0.00189433,0.00606590,-0.27441890,-0.04854734,0.066
 11583,-0.00503240,0.00019311,0.00058275,0.00040805,0.00148646,-0.00007
 330,0.00038575,0.00029178,-0.00085389,0.00030492,-0.00098641,0.0000511
 3,-0.00001402,0.00000979,-0.00003392,0.00038233,-0.00020818,-0.0000243
 5,0.00035584,-0.00047552,0.00143502,-0.00065825,-0.00026854,0.00049221
 ,0.29309583,0.00007019,-0.00064529,-0.00043354,0.00000109,0.00005911,0
 .00001853,-0.00002692,0.00000544,0.00001550,-0.00046989,0.00069278,0.0
 0019353,0.00019269,0.00035146,0.00035144,0.00000157,-0.00000385,0.0000
 0111,0.00007566,-0.00003868,-0.00007017,-0.00002400,0.00002926,0.00003
 648,-0.00001034,0.00004714,0.00003840,-0.00001422,-0.00000112,0.000019
 07,-0.00000171,-0.00000974,-0.00001130,-0.00011984,-0.00124772,-0.0006
 0054,-0.00000077,-0.00000558,-0.00000049,-0.00002249,0.00000694,-0.000
 00598,0.00001847,-0.00000034,0.00001468,-0.00000311,0.00000029,0.00000
 185,0.00000953,0.00000084,0.00000480,0.00006667,-0.00020971,0.00036434
 ,-0.00005666,-0.00002882,-0.00021825,0.00000478,0.00030938,-0.00035437
 ,0.00168064,0.00097036,0.00170067,0.01618234,0.00243475,-0.00930752,-0
 .05711827,-0.05595025,0.01497156,-0.02522037,0.00039106,0.00629136,0.0
 0166242,0.00142881,-0.00043143,0.00042943,-0.00461734,0.00396254,-0.00
 074231,-0.00442711,-0.00315989,0.00000268,-0.00001424,0.00003044,-0.00
 025804,0.00001708,0.00052882,-0.00030600,-0.00033435,0.00041978,0.0009
 7404,0.00058848,-0.00063314,0.04960746,0.05700390,0.00043700,-0.001034
 42,-0.00078765,0.00005147,0.00010639,-0.00000036,-0.00002744,-0.000013
 15,0.00002940,-0.00118429,0.00023322,0.00063982,0.00039383,0.00041270,
 0.00063164,0.00001230,0.00001815,-0.00000527,-0.00006805,-0.00002191,-
 0.00010196,0.00001670,0.00000977,0.00002665,0.00018664,0.00005958,0.00
 004273,0.00002026,0.00000917,0.00002122,-0.00000760,-0.00000417,-0.000
 00102,-0.00080037,-0.00104703,-0.00043538,-0.00000309,-0.00000687,-0.0
 0000076,-0.00002814,0.00000518,-0.00000986,0.00002465,0.00000468,0.000
 01831,-0.00000315,-0.00000381,0.00000988,0.00000773,0.00000357,0.00000
 332,0.00080940,0.00064471,-0.00033451,-0.00024120,-0.00011643,-0.00010
 193,-0.00086613,-0.00001872,-0.00041942,0.00359371,0.00022969,0.003379
 66,0.02856819,-0.00069198,-0.02055716,0.06367456,0.01222934,-0.0637033
 6,0.00175968,0.00512152,-0.00072630,0.00023885,-0.00145264,-0.00043748
 ,-0.00027976,0.00028350,0.00047084,0.00021128,-0.00084608,-0.00043927,
 0.00002823,-0.00004902,0.00003670,-0.00016168,0.00045731,-0.00060013,-
 0.00034333,-0.00060980,-0.00003280,-0.00000923,0.00100041,-0.00049842,
 -0.07709621,-0.00989083,0.07630192,-0.00085180,0.00060950,0.00038518,-
 0.00010610,-0.00005133,0.00003592,0.00011469,0.00005097,-0.00001899,0.
 00093621,0.00016311,-0.00068488,0.00024391,-0.00003101,-0.00044402,-0.
 00000212,-0.00006383,0.00000762,-0.00012692,-0.00011483,0.00016422,0.0
 0003853,-0.00000488,-0.00006582,0.00001891,0.00007319,-0.00010913,0.00
 004036,0.00008816,-0.00005646,-0.00000931,0.00000189,0.00002319,0.0005
 1026,-0.00034525,0.00041381,-0.00002853,0.00001769,-0.00000603,0.00001
 255,0.00000768,0.00000392,0.00000279,-0.00000536,-0.00000265,0.0000148
 8,0.00001433,-0.00001439,-0.00001592,-0.00000999,-0.00000488,0.0003844
 9,-0.00018578,0.00021653,-0.00005995,-0.00000919,0.00010217,-0.0000121
 4,0.00007305,-0.00005422,-0.00010802,0.00054943,0.00062139,0.00518356,
 -0.00362199,0.00757908,-0.14960882,0.06915763,-0.11628569,0.00224177,-
 0.00185995,0.00312974,0.00022903,-0.00027309,-0.00021859,-0.00163265,-
 0.00121146,0.00081502,-0.00001648,-0.00006734,0.00036426,0.00000972,0.
 00002418,0.00003910,0.00011091,-0.00031537,0.00005161,0.00001649,0.000
 05203,0.00016642,0.00120846,-0.00026149,-0.00045007,-0.01537338,0.0125
 3190,-0.01911083,0.15614060,-0.00075313,0.00164945,0.00094005,-0.00007
 995,-0.00011128,0.00004964,0.00006794,0.00001540,-0.00003448,0.0017551
 1,-0.00023711,-0.00103405,-0.00025525,-0.00073452,-0.00067397,-0.00001
 281,-0.00003282,0.00000981,-0.00001852,-0.00006709,0.00015265,0.000010
 58,-0.00000621,-0.00004962,-0.00004078,0.00004709,-0.00009168,0.000013
 26,0.00005364,-0.00004563,-0.00000296,0.00000133,0.00001131,0.00054180
 ,-0.00067523,0.00037339,-0.00001064,0.00001716,-0.00000675,0.00006801,
 -0.00001535,0.00001389,-0.00002615,-0.00000567,-0.00001956,0.00000995,
 0.00000656,-0.00001186,-0.00001363,-0.00001063,-0.00000205,-0.00105679
 ,-0.00016988,-0.00008869,0.00004203,0.00002459,-0.00057186,0.00023357,
 0.00010878,-0.00006802,0.00128271,-0.00059044,-0.00343456,-0.01071869,
 0.00440602,-0.01503574,0.07575429,-0.08867381,0.08119039,0.01825148,-0
 .00659805,0.01906361,0.00070285,-0.00459923,-0.00182277,-0.00434206,-0
 .00328284,0.00128439,-0.00038549,0.00304182,-0.00112976,-0.00002756,-0
 .00002927,-0.00006615,-0.00000865,-0.00000917,-0.00000738,-0.00012353,
 0.00006684,0.00005950,-0.00084464,0.00136883,-0.00026735,-0.00528885,0
 .00291465,-0.00530748,-0.07435886,0.09338487,0.00078392,-0.00057906,-0
 .00026330,0.00008376,0.00012237,-0.00001411,-0.00008622,-0.00003392,-0
 .00001321,-0.00142324,-0.00025356,0.00031546,-0.00016047,0.00007542,0.
 00033412,0.00000438,0.00003782,-0.00000708,0.00013428,0.00006607,-0.00
 013372,-0.00003968,0.00001505,0.00005816,-0.00003866,-0.00003948,0.000
 09767,-0.00003556,-0.00005834,0.00004349,0.00000490,-0.00000455,-0.000
 02285,-0.00035741,0.00004518,-0.00090916,0.00003003,-0.00001034,0.0000
 0078,-0.00004127,0.00001420,0.00000020,-0.00001233,-0.00002071,0.00000
 011,-0.00001166,-0.00000746,0.00001020,0.00001495,0.00000735,0.0000102
 7,-0.00186342,-0.00051059,0.00022427,0.00013191,0.00008140,-0.00090013
 ,0.00056019,0.00016617,-0.00010459,0.00320094,-0.00125215,-0.00375304,
 -0.01808223,0.00951986,-0.02393304,-0.11066869,0.06855273,-0.16621877,
 -0.00016420,0.00362266,-0.00111787,0.00035130,-0.00090105,-0.00041831,
 -0.00022148,0.00008645,0.00063286,-0.00031726,-0.00185072,-0.00024616,
 -0.00007046,-0.00002106,-0.00005487,0.00029448,-0.00003495,-0.00000858
 ,-0.00008828,-0.00003309,-0.00021646,-0.00115501,0.00031941,0.00093470
 ,0.00551467,-0.00392971,0.00737936,0.12360081,-0.07323024,0.18824088,-
 0.00041357,0.00072246,0.00029229,-0.00004393,-0.00002298,0.00001345,0.
 00011019,-0.00000177,-0.00001390,0.00085917,-0.00088146,-0.00043327,0.
 00003589,-0.00043363,-0.00031637,0.00000560,-0.00000989,-0.00000106,-0
 .00035061,-0.00001404,0.00019169,0.00011150,-0.00006372,-0.00011155,0.
 00024449,0.00000720,-0.00011455,0.00008944,0.00007426,-0.00007142,-0.0
 0002107,0.00001606,0.00004324,-0.00022705,0.00054134,0.00049479,-0.000
 03188,0.00001989,-0.00000687,0.00002237,-0.00000903,0.00000111,-0.0000
 1661,0.00000426,-0.00001583,0.00001377,0.00000585,-0.00000303,-0.00002
 658,-0.00000324,-0.00001152,0.00039441,0.00010806,0.00022195,-0.000199
 13,-0.00002259,-0.00019875,-0.00025561,-0.00015171,-0.00010925,-0.0000
 3633,0.00008716,-0.00003941,-0.00030184,0.00070616,0.00017384,-0.00257
 057,-0.00009011,0.00080142,-0.01068717,0.03586707,0.01082677,-0.018210
 04,-0.01133396,-0.00095556,-0.00021278,-0.00274243,-0.00095381,0.00228
 801,-0.00288801,-0.00073019,0.00003257,-0.00000573,0.00004240,0.000093
 29,-0.00001491,0.00009428,0.00002643,-0.00004471,0.00000636,0.00013923
 ,0.00009278,0.00018464,0.00024611,-0.00009678,-0.00008671,0.00030168,0
 .00050908,-0.00005649,0.02981297,0.00051550,-0.00062767,-0.00018247,0.
 00007161,0.00005232,-0.00001225,-0.00014358,-0.00004473,0.00001440,-0.
 00095185,0.00070908,0.00030423,-0.00018912,0.00035434,0.00019028,-0.00
 002022,0.00004563,0.00000034,0.00046631,0.00025189,-0.00014927,-0.0001
 2167,0.00000219,0.00008244,-0.00040348,-0.00014373,0.00010659,-0.00013
 009,-0.00020551,0.00007275,0.00003272,0.00000127,-0.00003992,0.0007837
 9,-0.00039842,-0.00060305,0.00003759,-0.00002008,0.00001076,-0.0000268
 6,0.00000221,-0.00000277,0.00000612,-0.00000277,0.00000634,-0.00002638
 ,-0.00000926,0.00000431,0.00002867,0.00001861,0.00000828,-0.00021269,-
 0.00006543,-0.00049514,0.00017965,0.00002753,0.00031386,0.00008396,0.0
 0007945,0.00024784,-0.00012463,0.00000120,0.00001621,0.00030133,-0.000
 33290,0.00036215,0.00126329,0.00115606,-0.00074840,0.00395087,-0.01501
 622,-0.00361625,0.02371742,-0.49080327,-0.12055574,-0.00417688,0.00096
 999,0.00342204,-0.00551735,0.00128688,-0.00056594,-0.00002601,0.000006
 16,-0.00007896,-0.00007895,-0.00006940,-0.00009698,0.00000489,0.000028
 09,0.00000974,0.00002168,0.00001715,-0.00013260,-0.00004452,0.00027327
 ,-0.00004985,0.00001105,-0.00026797,-0.00008321,-0.01995578,0.50313222
 ,0.00011678,0.00000700,0.00008493,-0.00000591,0.00002205,0.00004208,-0
 .00004515,0.00001021,-0.00004699,-0.00010263,-0.00001313,-0.00027218,-
 0.00015255,0.00001931,-0.00016576,-0.00002502,-0.00001457,0.00001194,0
 .00032465,-0.00000167,0.00008863,-0.00008219,0.00002440,0.00000212,-0.
 00030432,-0.00000633,-0.00004117,-0.00007166,-0.00002487,-0.00002101,0
 .00002447,-0.00000962,-0.00001229,0.00071244,-0.00037144,-0.00002278,0
 .00002153,-0.00000631,0.00000634,-0.00000789,0.00000626,0.00000162,-0.
 00001019,-0.00001262,-0.00000546,-0.00000686,0.00000376,-0.00000867,0.
 00000820,0.00000513,0.00001308,-0.00007179,-0.00012271,-0.00010877,0.0
 0003409,0.00006417,0.00007429,0.00000938,0.00010482,0.00004309,-0.0000
 8071,0.00002620,-0.00009153,-0.00020285,0.00069802,-0.00016083,0.00040
 666,0.00064773,0.00247606,0.00325651,-0.00976103,0.00052262,0.00728638
 ,-0.11601360,-0.03249223,-0.00005689,0.00269925,-0.00094617,-0.0008915
 7,-0.00024396,-0.00197097,0.00000008,-0.00004694,-0.00004531,0.0000268
 0,-0.00012651,0.00002445,0.00000857,-0.00000322,0.00000742,0.00000059,
 0.00007806,0.00016403,-0.00015502,-0.00006551,0.00015311,-0.00012886,-
 0.00033526,-0.00017856,-0.00972540,0.12290448,0.03289830,-0.01048461,0
 .01093774,0.00156872,-0.00053034,0.00022125,0.00013940,0.00107240,0.00
 017682,-0.00031864,0.00406673,-0.00801187,-0.00201556,0.00049014,-0.00
 697953,-0.00665036,-0.00013859,-0.00038280,0.00015820,-0.00051349,-0.0
 0086036,0.00193938,0.00021132,-0.00009296,-0.00068690,-0.00042795,0.00
 038122,-0.00111046,0.00023476,0.00071728,-0.00057924,-0.00002664,0.000
 01634,0.00018429,0.00699151,-0.00241076,0.00230160,-0.00018354,0.00015
 589,-0.00005877,0.00023935,-0.00012557,-0.00006472,-0.00034418,0.00007
 463,-0.00029378,0.00012892,0.00008189,-0.00016280,-0.00028517,-0.00013
 058,-0.00000721,0.00095551,0.00008850,-0.00110030,-0.00019886,-0.00001
 809,0.00039377,-0.00113542,-0.00010538,0.00041666,-0.00066013,0.000111
 42,0.00009905,-0.00096104,0.00121651,0.00143334,0.00257086,-0.00054326
 ,0.00029152,-0.03415679,-0.00189301,-0.02319105,0.00480745,0.00024596,
 0.00098810,-0.00095694,0.00137362,0.00998101,-0.36655743,0.12542590,0.
 05369418,0.00005103,-0.00004802,-0.00005610,-0.00014120,-0.00010382,-0
 .00012607,0.00003234,-0.00000101,0.00000004,0.00082571,0.00034387,0.00
 020385,-0.00000967,0.00097385,0.00027983,0.00020667,-0.00086565,0.0001
 7159,-0.00119350,0.00064776,-0.00012510,0.39614178,0.00527958,-0.01045
 518,-0.00181301,0.00059458,0.00051913,0.00001250,-0.00083511,-0.000401
 31,0.00014117,-0.00570532,0.00176969,0.00311710,0.00040425,0.00509214,
 0.00422426,0.00002191,0.00060525,-0.00005329,0.00060155,0.00117380,-0.
 00073248,-0.00012646,-0.00015714,0.00023713,-0.00014858,-0.00074894,0.
 00056693,-0.00022458,-0.00070783,0.00027698,0.00005191,0.00003688,-0.0
 0010515,-0.00323733,0.00262929,-0.00235660,0.00013874,-0.00011477,0.00
 005466,-0.00026688,0.00000951,-0.00007529,0.00009382,0.00004244,0.0000
 3558,-0.00010960,-0.00010883,0.00008691,0.00003540,0.00012677,0.000019
 53,-0.00050508,-0.00000861,0.00017224,0.00021395,0.00001854,0.00010094
 ,0.00058757,0.00000148,0.00003042,0.00001471,0.00006255,-0.00012961,0.
 00084058,-0.00105932,-0.00024845,0.00011027,0.00004595,-0.00144602,-0.
 00322562,0.00741058,0.00845643,-0.00388427,0.00228171,-0.00279957,-0.0
 0022165,-0.00228393,-0.00402393,0.13063442,-0.06634521,-0.02792519,-0.
 00003784,0.00004025,-0.00002342,0.00008300,0.00007000,0.00005589,0.000
 04510,-0.00000628,0.00003099,-0.00049715,-0.00029266,-0.00021774,0.000
 26891,0.00000569,0.00033232,-0.00061883,-0.00098133,0.00011116,0.00004
 330,-0.00044634,-0.00014940,-0.12047142,0.06207077,0.00361266,-0.00560
 090,-0.00222191,0.00013966,0.00088402,0.00057810,-0.00062659,-0.000192
 42,-0.00019173,-0.00338007,0.00450833,-0.00427684,-0.00042924,0.003349
 30,0.00362028,-0.00003376,0.00017049,-0.00002123,0.00139218,0.00049284
 ,-0.00048846,-0.00034329,0.00006195,0.00023541,-0.00081762,-0.00024807
 ,0.00051551,-0.00032347,-0.00043003,0.00017507,0.00007809,-0.00001914,
 -0.00012338,-0.00162518,-0.00071190,-0.00345686,0.00016178,-0.00004635
 ,-0.00000725,-0.00031862,0.00008895,-0.00007949,-0.00018312,-0.0001017
 5,-0.00001748,-0.00008581,-0.00001496,0.00003578,0.00013096,0.00006309
 ,0.00011989,-0.00076698,-0.00022651,0.00011027,0.00030011,0.00007428,0
 .00013684,0.00070684,0.00024452,0.00005642,0.00010382,-0.00003337,-0.0
 0019115,0.00051698,-0.00043121,-0.00050383,0.00016820,-0.00026404,-0.0
 0071889,-0.02880208,0.00837687,0.00503984,-0.00587112,-0.00134431,-0.0
 0211548,0.00463937,-0.00126071,-0.00217721,0.06918137,-0.03111153,-0.0
 3929949,-0.00004523,-0.00000067,-0.00005839,-0.00003050,0.00002567,0.0
 0006334,0.00001957,0.00003169,0.00002929,-0.00027240,-0.00015705,-0.00
 005039,0.00008665,0.00015454,0.00005273,-0.00007628,0.00017611,0.00024
 162,0.00054145,-0.00065021,-0.00002901,-0.03782482,0.02406220,0.045046
 61,-0.00021371,-0.00007410,-0.00008541,-0.00040613,0.00005140,0.000156
 41,-0.00029464,0.00045945,-0.00114436,0.00025543,-0.00002019,-0.000049
 94,0.00016797,0.00006862,0.00009083,0.00106279,0.00189339,-0.00021103,
 -0.01066053,-0.00101841,-0.00118129,-0.00082456,0.00447149,0.00123730,
 0.00296051,-0.00014801,0.00016329,-0.50726695,-0.10175225,0.03284305,0
 .00007810,-0.00011503,-0.00045362,-0.00048221,-0.00018225,-0.00000366,
 0.00021547,-0.00010486,0.00007817,0.00009607,0.00005317,-0.00004150,0.
 00004724,-0.00002244,-0.00001392,0.00014632,0.00022797,-0.00018363,-0.
 00004466,0.00000034,0.00009612,-0.00021533,-0.00006498,-0.00004653,0.0
 0010039,0.00002916,0.00009068,0.00018203,0.00006900,0.00002268,-0.0000
 2244,-0.00000335,-0.00003325,0.00008820,0.00001831,-0.00001348,0.00000
 787,0.00001078,0.00000092,-0.00029500,0.00000554,0.00013810,0.00012247
 ,-0.00004938,-0.00005199,0.00017544,-0.00000745,-0.00009906,0.00013334
 ,-0.00001968,-0.00003404,-0.00001866,-0.00000697,-0.00002809,-0.000006
 16,-0.00000220,-0.00000100,0.00000676,0.00000555,0.00000327,-0.0000294
 1,-0.00001804,0.00000736,0.00001087,0.00000633,0.00000290,-0.00001431,
 -0.00000805,0.00001189,-0.00002881,0.00002588,0.00001543,-0.00012095,0
 .00005217,0.00007649,0.51508720,-0.00042205,0.00015633,-0.00014924,-0.
 00029138,0.00012599,0.00021909,0.00041513,0.00004947,-0.00065261,0.000
 40982,-0.00022233,0.00000978,0.00027017,-0.00006528,0.00012371,0.00083
 294,-0.00036030,-0.00056637,-0.03362229,-0.01490382,0.00442845,0.00314
 613,0.00228248,0.00035291,-0.00199813,-0.00269892,0.00147365,-0.065193
 77,-0.03188916,0.00711925,-0.00024184,-0.00001795,-0.00066416,-0.00040
 962,0.00001264,-0.00007978,-0.00000495,-0.00011223,0.00010832,0.000087
 68,0.00005562,-0.00002488,0.00004116,-0.00002916,-0.00000767,0.0007118
 9,0.00012930,0.00106022,0.00009472,0.00029363,-0.00034787,-0.00017645,
 -0.00003557,-0.00003271,0.00008113,0.00001281,0.00006995,0.00014951,0.
 00002267,0.00000234,-0.00001482,0.00000066,-0.00002982,0.00006971,-0.0
 0001158,-0.00000487,0.00000281,0.00000645,0.00001038,-0.00026213,0.000
 11849,0.00006988,0.00011407,-0.00007697,-0.00003926,0.00013468,-0.0000
 6377,-0.00004021,0.00013751,-0.00007488,-0.00002367,-0.00002005,0.0000
 0751,-0.00002067,-0.00000282,-0.00000013,-0.00000109,0.00000385,0.0000
 0496,0.00000304,-0.00004092,-0.00001392,0.00000661,0.00000996,0.000003
 42,0.00000299,-0.00001594,-0.00000915,0.00001089,-0.00001844,0.0000381
 7,0.00000784,-0.00014635,0.00010525,0.00008028,0.09616909,0.04715926,0
 .00027301,0.00008649,0.00030618,0.00014644,-0.00022883,-0.00019001,-0.
 00075911,-0.00024277,0.00025037,-0.00023997,-0.00000703,-0.00009988,-0
 .00020044,-0.00009897,-0.00028380,0.00014457,0.00043193,0.00019509,0.0
 0664258,0.00437820,-0.00104946,0.00177269,0.00018122,-0.00205521,-0.00
 093527,-0.00022161,0.00208164,0.02594875,0.00824771,-0.00619756,-0.000
 54221,-0.00051113,0.00036413,0.00017952,-0.00000202,0.00035517,-0.0000
 4373,-0.00008391,0.00013567,-0.00008356,-0.00004858,0.00003346,0.00000
 738,0.00004393,-0.00003827,-0.00125072,0.00041702,-0.00095919,0.000302
 42,0.00015638,0.00002212,0.00005515,0.00001663,0.00010127,-0.00004635,
 -0.00001033,-0.00007945,-0.00004859,-0.00002092,-0.00008944,0.00004365
 ,-0.00000651,0.00003542,-0.00006765,-0.00002056,-0.00002780,-0.0000109
 0,0.00000650,0.00000393,0.00025161,0.00001818,0.00009670,-0.00008564,0
 .00002348,-0.00000265,-0.00009960,0.00001058,-0.00004768,-0.00016422,-
 0.00001178,-0.00005987,-0.00000189,-0.00000318,0.00002891,0.00000057,0
 .00000326,-0.00000076,-0.00000962,-0.00000230,-0.00000799,0.00002110,0
 .00001044,0.00000015,-0.00000531,-0.00000678,-0.00000425,0.00001180,0.
 00001017,-0.00001035,0.00002527,-0.00001401,0.00000558,0.00012736,-0.0
 0002616,-0.00002854,-0.03135908,-0.01247471,0.00721638\\0.00000748,-0.
 00001326,-0.00001135,0.00000498,0.00000739,0.00000279,0.00000158,-0.00
 000908,-0.00000395,-0.00000310,0.00002035,0.00000737,-0.00000240,0.000
 00768,0.00001534,0.00000298,0.00002418,-0.00001265,-0.00002809,0.00001
 570,0.00001098,0.00001607,-0.00001254,-0.00000834,0.00002548,-0.000032
 47,-0.00001249,-0.00000614,0.00001393,-0.00000475,-0.00000869,0.000006
 46,-0.00000807,-0.00005413,0.00002570,-0.00003416,-0.00000261,0.000006
 49,-0.00000775,0.00000620,0.00000579,0.00000259,-0.00000022,0.00000731
 ,-0.00000376,-0.00000170,0.00000499,-0.00000211,-0.00000287,0.00000348
 ,-0.00000460,-0.00001202,0.00000639,-0.00000117,0.00000051,-0.00001686
 ,0.00000784,0.00002003,-0.00000379,0.00000076,0.00001874,-0.00000737,0
 .00000973,-0.00003182,-0.00002325,0.00000757,0.00000256,0.00000629,-0.
 00000188,0.00002672,-0.00000601,0.00002825,0.00000281,-0.00000092,0.00
 000880,0.00001603,-0.00000704,0.00001812,-0.00001619,-0.00002307,0.000
 00380,-0.00000283,-0.00000807,0.00000539,0.00000155,-0.00000392,0.0000
 0356,-0.00000258,-0.00000674,0.00000601,0.00001700,0.00000336,0.,0.000
 00301,-0.00000407,0.00000635,0.00000482,-0.00000256,0.00000372,-0.0000
 0562,-0.00000015,-0.00001243,0.00000562,0.00001571,-0.00000768,-0.0000
 0318,-0.00000006,-0.00001185\\\@
 The archive entry for this job was punched.


 WHERE THERE IS MUCH DESIRE TO LEARN, THERE OF NECESSITY WILL BE
 MUCH ARGUING, MUCH WRITING, MANY OPINIONS; FOR OPINION IN GOOD MEN
 IS BUT KNOWLEDGE IN THE MAKING. -- JOHN MILTON.
 Job cpu time:       2 days  3 hours 20 minutes  6.4 seconds.
 Elapsed time:       0 days  1 hours  6 minutes 29.3 seconds.
 File lengths (MBytes):  RWF=   3369 Int=      0 D2E=      0 Chk=     65 Scr=      1
 Normal termination of Gaussian 16 at Fri Dec 20 13:25:50 2024.
