 Entering Gaussian System, Link 0=g16
 Initial command:
 /apps/gaussian/g16c01/g16/l1.exe "/jobfs/131426745.gadi-pbs/Gau-1970330.inp" -scrdir="/jobfs/131426745.gadi-pbs/"
 Entering Link 1 = /apps/gaussian/g16c01/g16/l1.exe PID=   1970331.
  
 Copyright (c) 1988-2019, Gaussian, Inc.  All Rights Reserved.
  
 This is part of the Gaussian(R) 16 program.  It is based on
 the Gaussian(R) 09 system (copyright 2009, Gaussian, Inc.),
 the Gaussian(R) 03 system (copyright 2003, Gaussian, Inc.),
 the Gaussian(R) 98 system (copyright 1998, Gaussian, Inc.),
 the Gaussian(R) 94 system (copyright 1995, Gaussian, Inc.),
 the Gaussian 92(TM) system (copyright 1992, Gaussian, Inc.),
 the Gaussian 90(TM) system (copyright 1990, Gaussian, Inc.),
 the Gaussian 88(TM) system (copyright 1988, Gaussian, Inc.),
 the Gaussian 86(TM) system (copyright 1986, Carnegie Mellon
 University), and the Gaussian 82(TM) system (copyright 1983,
 Carnegie Mellon University). Gaussian is a federally registered
 trademark of Gaussian, Inc.
  
 This software contains proprietary and confidential information,
 including trade secrets, belonging to Gaussian, Inc.
  
 This software is provided under written license and may be
 used, copied, transmitted, or stored only in accord with that
 written license.
  
 The following legend is applicable only to US Government
 contracts under FAR:
  
                    RESTRICTED RIGHTS LEGEND
  
 Use, reproduction and disclosure by the US Government is
 subject to restrictions as set forth in subparagraphs (a)
 and (c) of the Commercial Computer Software - Restricted
 Rights clause in FAR 52.227-19.
  
 Gaussian, Inc.
 340 Quinnipiac St., Bldg. 40, Wallingford CT 06492
  
  
 ---------------------------------------------------------------
 Warning -- This program may not be used in any manner that
 competes with the business of Gaussian, Inc. or will provide
 assistance to any competitor of Gaussian, Inc.  The licensee
 of this program is prohibited from giving any competitor of
 Gaussian, Inc. access to this program.  By using this program,
 the user acknowledges that Gaussian, Inc. is engaged in the
 business of creating and licensing software in the field of
 computational chemistry and represents and warrants to the
 licensee that it is not a competitor of Gaussian, Inc. and that
 it will not use this program in any manner prohibited above.
 ---------------------------------------------------------------
  

 Cite this work as:
 Gaussian 16, Revision C.01,
 M. J. Frisch, G. W. Trucks, H. B. Schlegel, G. E. Scuseria, 
 M. A. Robb, J. R. Cheeseman, G. Scalmani, V. Barone, 
 G. A. Petersson, H. Nakatsuji, X. Li, M. Caricato, A. V. Marenich, 
 J. Bloino, B. G. Janesko, R. Gomperts, B. Mennucci, H. P. Hratchian, 
 J. V. Ortiz, A. F. Izmaylov, J. L. Sonnenberg, D. Williams-Young, 
 F. Ding, F. Lipparini, F. Egidi, J. Goings, B. Peng, A. Petrone, 
 T. Henderson, D. Ranasinghe, V. G. Zakrzewski, J. Gao, N. Rega, 
 G. Zheng, W. Liang, M. Hada, M. Ehara, K. Toyota, R. Fukuda, 
 J. Hasegawa, M. Ishida, T. Nakajima, Y. Honda, O. Kitao, H. Nakai, 
 T. Vreven, K. Throssell, J. A. Montgomery, Jr., J. E. Peralta, 
 F. Ogliaro, M. J. Bearpark, J. J. Heyd, E. N. Brothers, K. N. Kudin, 
 V. N. Staroverov, T. A. Keith, R. Kobayashi, J. Normand, 
 K. Raghavachari, A. P. Rendell, J. C. Burant, S. S. Iyengar, 
 J. Tomasi, M. Cossi, J. M. Millam, M. Klene, C. Adamo, R. Cammi, 
 J. W. Ochterski, R. L. Martin, K. Morokuma, O. Farkas, 
 J. B. Foresman, and D. J. Fox, Gaussian, Inc., Wallingford CT, 2019.
 
 ******************************************
 Gaussian 16:  ES64L-G16RevC.01  3-Jul-2019
                21-Dec-2024 
 ******************************************
 %mem=60gb
 %nprocs=48
 Will use up to   48 processors via shared memory.
 %RWF=/scratch/gy60/or4187/rwf/d.CONF1.Cu.CONF1.rwf
 %NoSave
 %Chk=d.CONF1.Cu.CONF1.chk
 ----------------------------------------------------------------------
 #UM06/Def2TZVP OPT Freq=Noraman INT(grid=ultrafine) EmpiricalDispersio
 n=GD3 SCF=XQC Pop=NPA
 ----------------------------------------------------------------------
 1/18=20,19=15,26=4,38=1/1,3;
 2/9=110,12=2,17=6,18=5,40=1/2;
 3/5=44,7=101,11=2,25=1,30=1,71=1,74=-54,75=-5,116=2,124=31/1,2,3;
 4//1;
 5/5=2,8=3,13=1,38=5/2,8;
 6/7=2,8=2,9=2,10=2,28=1,40=-1/1,7;
 7//1,2,3,16;
 1/18=20,19=15,26=4/3(2);
 2/9=110/2;
 99//99;
 2/9=110/2;
 3/5=44,7=101,11=2,25=1,30=1,71=1,74=-54,75=-5,116=2,124=31/1,2,3;
 4/5=5,16=3,69=1/1;
 5/5=2,8=3,13=1,38=5/2,8;
 7//1,2,3,16;
 1/18=20,19=15,26=4/3(-5);
 2/9=110/2;
 6/7=2,8=2,9=2,10=2,19=2,28=1,40=-1/1,7;
 99/9=1/99;
 ------------------------
 d.CONF1.Cu.CONF1.optfreq
 ------------------------
 Symbolic Z-matrix:
 Charge =  1 Multiplicity = 2
 C                    -3.0792   -1.61433   0.08576 
 C                    -2.73277  -1.07263  -1.28782 
 N                    -1.79547   0.05403  -1.15338 
 O                    -4.14599  -2.40415   0.04606 
 O                    -2.45003  -1.36625   1.09147 
 C                    -2.44599   1.35632  -0.86036 
 P                    -1.21986   2.32258   0.09116 
 O                    -0.10917   2.88555  -0.87555 
 O                    -0.68937   1.39507   1.17117 
 O                    -2.03396   3.57964   0.60505 
 H                     0.64134   2.21677  -0.9989 
 Cu                   -0.41301  -0.4167    0.37897 
 H                    -4.30194  -2.77373   0.93216 
 H                    -1.22399   0.12236  -1.9931 
 H                    -2.23525  -1.88414  -1.83323 
 H                    -3.64803  -0.8062   -1.83312 
 H                    -2.78802   1.88015  -1.76204 
 H                    -3.30792   1.19335  -0.20164 
 C                     1.26074  -2.38238  -0.35015 
 O                     0.06531  -1.97885  -0.63807 
 O                     2.06743  -2.83905  -1.15517 
 C                     1.63577  -2.21285   1.13395 
 N                     1.19515  -0.86158   1.58628 
 C                     2.2691    0.1572    1.48152 
 P                     2.7318    0.53382  -0.2578 
 O                     3.65653  -0.60745  -0.84693 
 O                     1.50282   0.86254  -1.06071 
 O                     3.74775   1.73833  -0.02391 
 H                     2.70887  -2.36687   1.29287 
 H                     1.08363  -2.97302   1.698 
 H                     0.8871   -0.89211   2.55552 
 H                     3.17144  -0.15153   2.02947 
 H                     1.90264   1.09833   1.90937 
 H                    -1.53046   4.39903   0.72462 
 H                     4.51391   1.76002  -0.61631 
 H                     3.21063  -1.4422   -1.14908 
 

 GradGradGradGradGradGradGradGradGradGradGradGradGradGradGradGradGradGrad
 Berny optimization.
 Initialization pass.
                           ----------------------------
                           !    Initial Parameters    !
                           ! (Angstroms and Degrees)  !
 --------------------------                            --------------------------
 ! Name  Definition              Value          Derivative Info.                !
 --------------------------------------------------------------------------------
 ! R1    R(1,2)                  1.5166         estimate D2E/DX2                !
 ! R2    R(1,4)                  1.3279         estimate D2E/DX2                !
 ! R3    R(1,5)                  1.212          estimate D2E/DX2                !
 ! R4    R(2,3)                  1.4717         estimate D2E/DX2                !
 ! R5    R(2,15)                 1.0971         estimate D2E/DX2                !
 ! R6    R(2,16)                 1.0982         estimate D2E/DX2                !
 ! R7    R(3,6)                  1.4849         estimate D2E/DX2                !
 ! R8    R(3,12)                 2.1168         estimate D2E/DX2                !
 ! R9    R(3,14)                 1.018          estimate D2E/DX2                !
 ! R10   R(4,13)                 0.9727         estimate D2E/DX2                !
 ! R11   R(6,7)                  1.8282         estimate D2E/DX2                !
 ! R12   R(6,17)                 1.0975         estimate D2E/DX2                !
 ! R13   R(6,18)                 1.097          estimate D2E/DX2                !
 ! R14   R(7,8)                  1.5764         estimate D2E/DX2                !
 ! R15   R(7,9)                  1.5193         estimate D2E/DX2                !
 ! R16   R(7,10)                 1.5834         estimate D2E/DX2                !
 ! R17   R(8,11)                 1.0128         estimate D2E/DX2                !
 ! R18   R(9,12)                 1.9966         estimate D2E/DX2                !
 ! R19   R(10,34)                0.9691         estimate D2E/DX2                !
 ! R20   R(12,20)                1.9244         estimate D2E/DX2                !
 ! R21   R(12,23)                2.0595         estimate D2E/DX2                !
 ! R22   R(19,20)                1.2941         estimate D2E/DX2                !
 ! R23   R(19,21)                1.2277         estimate D2E/DX2                !
 ! R24   R(19,22)                1.5401         estimate D2E/DX2                !
 ! R25   R(22,23)                1.4915         estimate D2E/DX2                !
 ! R26   R(22,29)                1.0957         estimate D2E/DX2                !
 ! R27   R(22,30)                1.0958         estimate D2E/DX2                !
 ! R28   R(23,24)                1.484          estimate D2E/DX2                !
 ! R29   R(23,31)                1.0175         estimate D2E/DX2                !
 ! R30   R(24,25)                1.8388         estimate D2E/DX2                !
 ! R31   R(24,32)                1.0999         estimate D2E/DX2                !
 ! R32   R(24,33)                1.0968         estimate D2E/DX2                !
 ! R33   R(25,26)                1.5826         estimate D2E/DX2                !
 ! R34   R(25,27)                1.5044         estimate D2E/DX2                !
 ! R35   R(25,28)                1.593          estimate D2E/DX2                !
 ! R36   R(26,36)                0.9934         estimate D2E/DX2                !
 ! R37   R(28,35)                0.9687         estimate D2E/DX2                !
 ! A1    A(2,1,4)              111.6452         estimate D2E/DX2                !
 ! A2    A(2,1,5)              124.046          estimate D2E/DX2                !
 ! A3    A(4,1,5)              124.3048         estimate D2E/DX2                !
 ! A4    A(1,2,3)              109.644          estimate D2E/DX2                !
 ! A5    A(1,2,15)             106.8368         estimate D2E/DX2                !
 ! A6    A(1,2,16)             110.2426         estimate D2E/DX2                !
 ! A7    A(3,2,15)             108.836          estimate D2E/DX2                !
 ! A8    A(3,2,16)             112.9801         estimate D2E/DX2                !
 ! A9    A(15,2,16)            108.093          estimate D2E/DX2                !
 ! A10   A(2,3,6)              114.2302         estimate D2E/DX2                !
 ! A11   A(2,3,12)             108.1691         estimate D2E/DX2                !
 ! A12   A(2,3,14)             109.4844         estimate D2E/DX2                !
 ! A13   A(6,3,12)             109.7727         estimate D2E/DX2                !
 ! A14   A(6,3,14)             110.4763         estimate D2E/DX2                !
 ! A15   A(12,3,14)            104.2063         estimate D2E/DX2                !
 ! A16   A(1,4,13)             109.1204         estimate D2E/DX2                !
 ! A17   A(3,6,7)              105.8079         estimate D2E/DX2                !
 ! A18   A(3,6,17)             113.1421         estimate D2E/DX2                !
 ! A19   A(3,6,18)             109.4152         estimate D2E/DX2                !
 ! A20   A(7,6,17)             112.6039         estimate D2E/DX2                !
 ! A21   A(7,6,18)             107.034          estimate D2E/DX2                !
 ! A22   A(17,6,18)            108.6268         estimate D2E/DX2                !
 ! A23   A(6,7,8)              110.0052         estimate D2E/DX2                !
 ! A24   A(6,7,9)              106.3498         estimate D2E/DX2                !
 ! A25   A(6,7,10)             104.1046         estimate D2E/DX2                !
 ! A26   A(8,7,9)              114.0753         estimate D2E/DX2                !
 ! A27   A(8,7,10)             106.1269         estimate D2E/DX2                !
 ! A28   A(9,7,10)             115.6905         estimate D2E/DX2                !
 ! A29   A(7,8,11)             111.1597         estimate D2E/DX2                !
 ! A30   A(7,9,12)             108.6788         estimate D2E/DX2                !
 ! A31   A(7,10,34)            116.3704         estimate D2E/DX2                !
 ! A32   A(3,12,9)              89.7155         estimate D2E/DX2                !
 ! A33   A(3,12,20)             87.7228         estimate D2E/DX2                !
 ! A34   A(9,12,23)             94.1001         estimate D2E/DX2                !
 ! A35   A(20,12,23)            86.5822         estimate D2E/DX2                !
 ! A36   A(20,19,21)           125.2428         estimate D2E/DX2                !
 ! A37   A(20,19,22)           113.8912         estimate D2E/DX2                !
 ! A38   A(21,19,22)           120.8498         estimate D2E/DX2                !
 ! A39   A(12,20,19)           111.4155         estimate D2E/DX2                !
 ! A40   A(19,22,23)           108.6642         estimate D2E/DX2                !
 ! A41   A(19,22,29)           111.271          estimate D2E/DX2                !
 ! A42   A(19,22,30)           107.2743         estimate D2E/DX2                !
 ! A43   A(23,22,29)           111.8813         estimate D2E/DX2                !
 ! A44   A(23,22,30)           108.876          estimate D2E/DX2                !
 ! A45   A(29,22,30)           108.7417         estimate D2E/DX2                !
 ! A46   A(12,23,22)           104.394          estimate D2E/DX2                !
 ! A47   A(12,23,24)           112.0497         estimate D2E/DX2                !
 ! A48   A(12,23,31)           109.177          estimate D2E/DX2                !
 ! A49   A(22,23,24)           112.753          estimate D2E/DX2                !
 ! A50   A(22,23,31)           110.557          estimate D2E/DX2                !
 ! A51   A(24,23,31)           107.8754         estimate D2E/DX2                !
 ! A52   A(23,24,25)           112.9223         estimate D2E/DX2                !
 ! A53   A(23,24,32)           111.4595         estimate D2E/DX2                !
 ! A54   A(23,24,33)           108.6461         estimate D2E/DX2                !
 ! A55   A(25,24,32)           108.801          estimate D2E/DX2                !
 ! A56   A(25,24,33)           106.0991         estimate D2E/DX2                !
 ! A57   A(32,24,33)           108.6999         estimate D2E/DX2                !
 ! A58   A(24,25,26)           110.5754         estimate D2E/DX2                !
 ! A59   A(24,25,27)           110.1227         estimate D2E/DX2                !
 ! A60   A(24,25,28)           100.1639         estimate D2E/DX2                !
 ! A61   A(26,25,27)           115.8644         estimate D2E/DX2                !
 ! A62   A(26,25,28)           103.1367         estimate D2E/DX2                !
 ! A63   A(27,25,28)           115.7309         estimate D2E/DX2                !
 ! A64   A(25,26,36)           117.1864         estimate D2E/DX2                !
 ! A65   A(25,28,35)           115.5657         estimate D2E/DX2                !
 ! A66   L(3,12,23,20,-1)      174.3051         estimate D2E/DX2                !
 ! A67   L(9,12,20,23,-1)      180.6824         estimate D2E/DX2                !
 ! A68   L(3,12,23,20,-2)      170.8384         estimate D2E/DX2                !
 ! A69   L(9,12,20,23,-2)      191.2836         estimate D2E/DX2                !
 ! D1    D(4,1,2,3)            165.0286         estimate D2E/DX2                !
 ! D2    D(4,1,2,15)           -77.1845         estimate D2E/DX2                !
 ! D3    D(4,1,2,16)            40.0367         estimate D2E/DX2                !
 ! D4    D(5,1,2,3)            -15.6774         estimate D2E/DX2                !
 ! D5    D(5,1,2,15)           102.1096         estimate D2E/DX2                !
 ! D6    D(5,1,2,16)          -140.6693         estimate D2E/DX2                !
 ! D7    D(2,1,4,13)           176.5181         estimate D2E/DX2                !
 ! D8    D(5,1,4,13)            -2.7738         estimate D2E/DX2                !
 ! D9    D(1,2,3,6)            -83.0781         estimate D2E/DX2                !
 ! D10   D(1,2,3,12)            39.4789         estimate D2E/DX2                !
 ! D11   D(1,2,3,14)           152.4395         estimate D2E/DX2                !
 ! D12   D(15,2,3,6)           160.3888         estimate D2E/DX2                !
 ! D13   D(15,2,3,12)          -77.0541         estimate D2E/DX2                !
 ! D14   D(15,2,3,14)           35.9065         estimate D2E/DX2                !
 ! D15   D(16,2,3,6)            40.3173         estimate D2E/DX2                !
 ! D16   D(16,2,3,12)          162.8744         estimate D2E/DX2                !
 ! D17   D(16,2,3,14)          -84.165          estimate D2E/DX2                !
 ! D18   D(2,3,6,7)            151.0091         estimate D2E/DX2                !
 ! D19   D(2,3,6,17)           -85.2506         estimate D2E/DX2                !
 ! D20   D(2,3,6,18)            36.0104         estimate D2E/DX2                !
 ! D21   D(12,3,6,7)            29.3303         estimate D2E/DX2                !
 ! D22   D(12,3,6,17)          153.0706         estimate D2E/DX2                !
 ! D23   D(12,3,6,18)          -85.6684         estimate D2E/DX2                !
 ! D24   D(14,3,6,7)           -85.0389         estimate D2E/DX2                !
 ! D25   D(14,3,6,17)           38.7014         estimate D2E/DX2                !
 ! D26   D(14,3,6,18)          159.9624         estimate D2E/DX2                !
 ! D27   D(2,3,12,9)          -132.6971         estimate D2E/DX2                !
 ! D28   D(2,3,12,20)           58.2906         estimate D2E/DX2                !
 ! D29   D(6,3,12,9)            -7.4588         estimate D2E/DX2                !
 ! D30   D(6,3,12,20)         -176.4711         estimate D2E/DX2                !
 ! D31   D(14,3,12,9)          110.8661         estimate D2E/DX2                !
 ! D32   D(14,3,12,20)         -58.1462         estimate D2E/DX2                !
 ! D33   D(3,6,7,8)             76.5911         estimate D2E/DX2                !
 ! D34   D(3,6,7,9)            -47.4117         estimate D2E/DX2                !
 ! D35   D(3,6,7,10)          -170.0637         estimate D2E/DX2                !
 ! D36   D(17,6,7,8)           -47.487          estimate D2E/DX2                !
 ! D37   D(17,6,7,9)          -171.4898         estimate D2E/DX2                !
 ! D38   D(17,6,7,10)           65.8582         estimate D2E/DX2                !
 ! D39   D(18,6,7,8)          -166.7889         estimate D2E/DX2                !
 ! D40   D(18,6,7,9)            69.2083         estimate D2E/DX2                !
 ! D41   D(18,6,7,10)          -53.4437         estimate D2E/DX2                !
 ! D42   D(6,7,8,11)           -87.456          estimate D2E/DX2                !
 ! D43   D(9,7,8,11)            31.9365         estimate D2E/DX2                !
 ! D44   D(10,7,8,11)          160.5052         estimate D2E/DX2                !
 ! D45   D(6,7,9,12)            41.2515         estimate D2E/DX2                !
 ! D46   D(8,7,9,12)           -80.186          estimate D2E/DX2                !
 ! D47   D(10,7,9,12)          156.2723         estimate D2E/DX2                !
 ! D48   D(6,7,10,34)         -149.8361         estimate D2E/DX2                !
 ! D49   D(8,7,10,34)          -33.7423         estimate D2E/DX2                !
 ! D50   D(9,7,10,34)           93.8706         estimate D2E/DX2                !
 ! D51   D(7,9,12,3)           -22.2432         estimate D2E/DX2                !
 ! D52   D(7,9,12,23)          147.6614         estimate D2E/DX2                !
 ! D53   D(3,12,20,19)         155.7553         estimate D2E/DX2                !
 ! D54   D(23,12,20,19)        -15.0831         estimate D2E/DX2                !
 ! D55   D(9,12,23,22)        -177.9788         estimate D2E/DX2                !
 ! D56   D(9,12,23,24)         -55.6516         estimate D2E/DX2                !
 ! D57   D(9,12,23,31)          63.7871         estimate D2E/DX2                !
 ! D58   D(20,12,23,22)         -9.2624         estimate D2E/DX2                !
 ! D59   D(20,12,23,24)        113.0647         estimate D2E/DX2                !
 ! D60   D(20,12,23,31)       -127.4965         estimate D2E/DX2                !
 ! D61   D(21,19,20,12)       -142.2362         estimate D2E/DX2                !
 ! D62   D(22,19,20,12)         36.3026         estimate D2E/DX2                !
 ! D63   D(20,19,22,23)        -44.531          estimate D2E/DX2                !
 ! D64   D(20,19,22,29)       -168.1473         estimate D2E/DX2                !
 ! D65   D(20,19,22,30)         73.0274         estimate D2E/DX2                !
 ! D66   D(21,19,22,23)        134.0789         estimate D2E/DX2                !
 ! D67   D(21,19,22,29)         10.4626         estimate D2E/DX2                !
 ! D68   D(21,19,22,30)       -108.3627         estimate D2E/DX2                !
 ! D69   D(19,22,23,12)         27.9272         estimate D2E/DX2                !
 ! D70   D(19,22,23,24)        -93.9377         estimate D2E/DX2                !
 ! D71   D(19,22,23,31)        145.214          estimate D2E/DX2                !
 ! D72   D(29,22,23,12)        151.178          estimate D2E/DX2                !
 ! D73   D(29,22,23,24)         29.313          estimate D2E/DX2                !
 ! D74   D(29,22,23,31)        -91.5353         estimate D2E/DX2                !
 ! D75   D(30,22,23,12)        -88.6072         estimate D2E/DX2                !
 ! D76   D(30,22,23,24)        149.5278         estimate D2E/DX2                !
 ! D77   D(30,22,23,31)         28.6795         estimate D2E/DX2                !
 ! D78   D(12,23,24,25)        -50.0228         estimate D2E/DX2                !
 ! D79   D(12,23,24,32)       -172.8569         estimate D2E/DX2                !
 ! D80   D(12,23,24,33)         67.3929         estimate D2E/DX2                !
 ! D81   D(22,23,24,25)         67.41           estimate D2E/DX2                !
 ! D82   D(22,23,24,32)        -55.4241         estimate D2E/DX2                !
 ! D83   D(22,23,24,33)       -175.1743         estimate D2E/DX2                !
 ! D84   D(31,23,24,25)       -170.2227         estimate D2E/DX2                !
 ! D85   D(31,23,24,32)         66.9433         estimate D2E/DX2                !
 ! D86   D(31,23,24,33)        -52.8069         estimate D2E/DX2                !
 ! D87   D(23,24,25,26)        -77.7602         estimate D2E/DX2                !
 ! D88   D(23,24,25,27)         51.5707         estimate D2E/DX2                !
 ! D89   D(23,24,25,28)        173.9436         estimate D2E/DX2                !
 ! D90   D(32,24,25,26)         46.5425         estimate D2E/DX2                !
 ! D91   D(32,24,25,27)        175.8734         estimate D2E/DX2                !
 ! D92   D(32,24,25,28)        -61.7537         estimate D2E/DX2                !
 ! D93   D(33,24,25,26)        163.3353         estimate D2E/DX2                !
 ! D94   D(33,24,25,27)        -67.3338         estimate D2E/DX2                !
 ! D95   D(33,24,25,28)         55.0391         estimate D2E/DX2                !
 ! D96   D(24,25,26,36)         79.0692         estimate D2E/DX2                !
 ! D97   D(27,25,26,36)        -47.114          estimate D2E/DX2                !
 ! D98   D(28,25,26,36)       -174.6013         estimate D2E/DX2                !
 ! D99   D(24,25,28,35)        142.6539         estimate D2E/DX2                !
 ! D100  D(26,25,28,35)         28.5446         estimate D2E/DX2                !
 ! D101  D(27,25,28,35)        -99.0266         estimate D2E/DX2                !
 --------------------------------------------------------------------------------
 Trust Radius=3.00D-01 FncErr=1.00D-07 GrdErr=1.00D-06 EigMax=2.50D+02 EigMin=1.00D-04
 Number of steps in this run=    216 maximum allowed number of steps=    216.
 GradGradGradGradGradGradGradGradGradGradGradGradGradGradGradGradGradGrad

                          Input orientation:                          
 ---------------------------------------------------------------------
 Center     Atomic      Atomic             Coordinates (Angstroms)
 Number     Number       Type             X           Y           Z
 ---------------------------------------------------------------------
      1          6           0       -3.079201   -1.614333    0.085762
      2          6           0       -2.732773   -1.072630   -1.287815
      3          7           0       -1.795470    0.054028   -1.153378
      4          8           0       -4.145993   -2.404147    0.046060
      5          8           0       -2.450031   -1.366254    1.091475
      6          6           0       -2.445991    1.356319   -0.860363
      7         15           0       -1.219863    2.322584    0.091161
      8          8           0       -0.109170    2.885552   -0.875554
      9          8           0       -0.689366    1.395068    1.171170
     10          8           0       -2.033963    3.579638    0.605045
     11          1           0        0.641341    2.216768   -0.998897
     12         29           0       -0.413006   -0.416702    0.378971
     13          1           0       -4.301942   -2.773728    0.932164
     14          1           0       -1.223988    0.122359   -1.993103
     15          1           0       -2.235247   -1.884139   -1.833227
     16          1           0       -3.648030   -0.806195   -1.833120
     17          1           0       -2.788015    1.880147   -1.762040
     18          1           0       -3.307916    1.193349   -0.201637
     19          6           0        1.260735   -2.382381   -0.350150
     20          8           0        0.065307   -1.978846   -0.638069
     21          8           0        2.067430   -2.839045   -1.155172
     22          6           0        1.635766   -2.212852    1.133952
     23          7           0        1.195153   -0.861576    1.586276
     24          6           0        2.269103    0.157198    1.481520
     25         15           0        2.731803    0.533815   -0.257804
     26          8           0        3.656533   -0.607451   -0.846928
     27          8           0        1.502817    0.862536   -1.060714
     28          8           0        3.747746    1.738331   -0.023914
     29          1           0        2.708868   -2.366868    1.292866
     30          1           0        1.083632   -2.973020    1.697995
     31          1           0        0.887100   -0.892105    2.555519
     32          1           0        3.171443   -0.151529    2.029465
     33          1           0        1.902638    1.098330    1.909366
     34          1           0       -1.530464    4.399033    0.724623
     35          1           0        4.513908    1.760023   -0.616307
     36          1           0        3.210628   -1.442203   -1.149084
 ---------------------------------------------------------------------
                    Distance matrix (angstroms):
                    1          2          3          4          5
     1  C    0.000000
     2  C    1.516631   0.000000
     3  N    2.442716   1.471723   0.000000
     4  O    1.327941   2.355706   3.606416   0.000000
     5  O    1.211964   2.413955   2.735876   2.246420   0.000000
     6  C    3.181333   2.482892   1.484923   4.225247   3.349939
     7  P    4.353904   3.964587   2.650763   5.559340   4.015155
     8  O    5.476694   4.766598   3.307313   6.717606   5.237050
     9  O    3.993234   4.038769   2.902650   5.258153   3.275850
    10  O    5.323487   5.070981   3.947006   6.370151   4.987141
    11  H    5.449427   4.721044   3.261803   6.735233   5.173421
    12  Cu   2.937497   2.930825   2.116811   4.242164   2.357707
    13  H    1.885653   3.206919   4.316027   0.972672   2.331510
    14  H    3.283229   2.049844   1.018037   4.368012   3.637825
    15  H    2.113663   1.097066   2.100498   2.730033   2.977955
    16  H    2.158416   1.098199   2.152675   2.516493   3.209692
    17  H    3.963654   2.991126   2.165716   4.844430   4.335424
    18  H    2.831605   2.577835   2.119282   3.702122   2.993271
    19  C    4.428878   4.306132   3.990195   5.421270   4.108598
    20  O    3.247265   3.012084   2.803678   4.287652   3.113441
    21  O    5.433935   5.116617   4.826165   6.343400   5.255853
    22  C    4.867016   5.123397   4.705742   5.886327   4.172801
    23  N    4.592199   4.871709   4.157867   5.768850   3.713071
    24  C    5.804379   5.848116   4.845006   7.055104   4.974260
    25  P    6.204865   5.788193   4.639876   7.485187   5.681744
    26  O    6.874142   6.421371   5.500528   8.056361   6.451613
    27  O    5.333308   4.662260   3.397200   6.618551   5.022393
    28  O    7.606549   7.176077   5.902526   8.914939   7.021038
    29  H    5.960298   6.160067   5.668678   6.967427   5.258900
    30  H    4.666316   5.204949   5.057922   5.513754   3.928910
    31  H    4.727881   5.282735   4.674106   5.823717   3.674872
    32  H    6.707334   6.834657   5.902793   7.909049   5.827208
    33  H    5.958422   6.035070   4.913957   7.233615   5.068417
    34  H    6.242379   5.952693   4.740905   7.320157   5.849677
    35  H    8.338734   7.809560   6.557981   9.631870   7.822185
    36  H    6.412209   5.956496   5.224916   7.514890   6.088426
                    6          7          8          9         10
     6  C    0.000000
     7  P    1.828238   0.000000
     8  O    2.792761   1.576423   0.000000
     9  O    2.685956   1.519254   2.597547   0.000000
    10  O    2.694501   1.583357   2.525620   2.626934   0.000000
    11  H    3.207987   2.159515   1.012794   2.674914   3.404012
    12  Cu   2.968599   2.870112   3.545565   1.996613   4.318489
    13  H    4.869804   6.014889   7.271494   5.521475   6.753961
    14  H    2.073415   3.030703   3.182290   3.452279   4.399910
    15  H    3.389903   4.736116   5.309171   4.708434   5.986530
    16  H    2.658500   4.403193   5.202832   4.756575   5.271185
    17  H    1.097451   2.467631   2.995481   3.639141   3.009976
    18  H    1.096993   2.391834   3.680991   2.963460   2.822777
    19  C    5.289425   5.337117   5.468437   4.515133   6.878452
    20  O    4.180832   4.548158   4.873316   3.902073   6.070339
    21  O    6.169194   6.245163   6.130806   5.562329   7.817882
    22  C    5.777284   5.460056   5.751229   4.292402   6.877470
    23  N    4.915591   4.266913   4.669350   2.969203   5.578027
    24  C    5.399483   4.335306   4.319247   3.221984   5.567556
    25  P    5.277229   4.351682   3.739440   3.806326   5.721370
    26  O    6.410723   5.765792   5.136381   5.193230   7.212606
    27  O    3.984601   3.297202   2.593334   3.173415   4.760904
    28  O    6.261626   5.003172   4.113053   4.608038   6.100341
    29  H    6.713500   6.234580   6.342815   5.070993   7.637308
    30  H    6.143827   5.994283   6.509132   4.743549   7.338342
    31  H    5.275714   4.565805   5.199568   3.103680   5.686250
    32  H    6.494634   5.400169   5.331549   4.246702   6.561008
    33  H    5.162222   3.815060   3.872636   2.711360   4.832698
    34  H    3.550842   2.193032   2.621310   3.151294   0.969133
    35  H    6.975868   5.804577   4.765173   5.513830   6.904876
    36  H    6.317628   5.944836   5.461258   5.351975   7.470046
                   11         12         13         14         15
    11  H    0.000000
    12  Cu   3.153622   0.000000
    13  H    7.284922   4.580984   0.000000
    14  H    2.975642   2.564179   5.139874   0.000000
    15  H    5.078219   3.219900   3.565106   2.252607   0.000000
    16  H    5.313468   3.938329   3.456238   2.600728   1.777053
    17  H    3.529332   3.937018   5.586525   2.364189   3.805321
    18  H    4.156879   3.363016   4.243971   2.949428   3.644672
    19  C    4.685797   2.682708   5.721963   3.891897   3.830098
    20  O    4.250316   1.924434   4.708538   2.813087   2.594209
    21  O    5.255416   3.791293   6.702995   4.506160   4.459219
    22  C    5.015921   2.827299   5.967552   4.838375   4.888450
    23  N    4.057836   2.059532   5.856812   4.430838   4.950382
    24  C    3.611635   2.956127   7.216007   4.927058   5.953467
    25  P    2.784166   3.346459   7.863169   4.339221   5.744567
    26  O    4.134089   4.254452   8.437728   5.066145   6.108665
    27  O    1.606209   2.716527   7.133667   2.975345   4.702566
    28  O    3.290782   4.703014   9.277405   5.586341   7.224411
    29  H    5.525990   3.792684   7.031863   5.697473   5.869392
    30  H    5.865386   3.242609   5.443402   5.341412   4.966905
    31  H    4.728569   2.579466   5.753429   5.116228   5.476703
    32  H    4.602306   3.955088   7.995716   5.964552   6.866922
    33  H    3.361513   3.162220   7.378656   5.094858   6.326469
    34  H    3.528390   4.955753   7.692377   5.076406   6.820379
    35  H    3.918133   5.477517  10.033537   6.123803   7.766074
    36  H    4.473462   4.064152   7.908430   4.777661   5.506443
                   16         17         18         19         20
    16  H    0.000000
    17  H    2.821544   0.000000
    18  H    2.602996   1.782371   0.000000
    19  C    5.364656   6.046069   5.803488   0.000000
    20  O    4.073344   4.929157   4.651014   1.294135   0.000000
    21  O    6.103980   6.798118   6.787030   1.227746   2.239606
    22  C    6.220989   6.686497   6.150284   1.540113   2.379319
    23  N    5.928892   5.881657   5.262792   2.463107   2.733597
    24  C    6.850360   6.250094   5.916905   3.289572   3.729887
    25  P    6.706677   5.877391   6.075882   3.267532   3.683513
    26  O    7.373514   6.968341   7.222384   3.022749   3.849838
    27  O    5.469232   4.465269   4.898020   3.330614   3.212245
    28  O    8.027786   6.764419   7.078909   4.824098   5.268297
    29  H    7.253802   7.588499   7.149152   2.190167   3.296587
    30  H    6.289080   7.107371   6.344519   2.138953   2.735427
    31  H    6.311492   6.311352   5.435916   3.286858   3.472082
    32  H    7.864691   7.349718   6.983452   3.780221   4.483626
    33  H    6.960124   6.007719   5.622743   4.199143   4.397070
    34  H    6.174183   3.756290   3.780701   7.411714   6.714220
    35  H    8.641952   7.392240   7.853280   5.273849   5.811167
    36  H    6.921965   6.884580   7.094731   2.307447   3.231434
                   21         22         23         24         25
    21  O    0.000000
    22  C    2.412165   0.000000
    23  N    3.490958   1.491537   0.000000
    24  C    3.996284   2.477712   1.483996   0.000000
    25  P    3.552864   3.268404   2.776516   1.838798   0.000000
    26  O    2.756860   3.253413   3.470368   2.816260   1.582618
    27  O    3.745586   3.780509   3.173921   2.747299   1.504370
    28  O    5.005555   4.627414   3.983461   2.636797   1.593017
    29  H    2.574351   1.095684   2.154838   2.569026   3.289235
    30  H    3.020988   1.095834   2.117336   3.354172   4.340450
    31  H    4.353502   2.079838   1.017478   2.040697   3.653897
    32  H    4.310858   2.722003   2.146231   1.099897   2.427875
    33  H    4.992141   3.411219   2.108590   1.096849   2.388057
    34  H    8.298689   7.342315   5.987106   5.744803   5.837122
    35  H    5.237085   5.208728   4.768468   3.465411   2.192717
    36  H    1.805023   2.878601   3.446950   3.219415   2.219978
                   26         27         28         29         30
    26  O    0.000000
    27  O    2.616306   0.000000
    28  O    2.487642   2.623295   0.000000
    29  H    2.927855   4.174081   4.434618   0.000000
    30  H    4.323467   4.743172   5.679727   1.781275   0.000000
    31  H    4.396298   4.066327   4.664329   2.662341   2.259243
    32  H    2.952425   3.655386   2.849572   2.379975   3.525569
    33  H    3.685511   3.006132   2.748017   3.610772   4.158286
    34  H    7.378319   4.989492   5.958116   8.004514   7.882139
    35  H    2.528480   3.173271   0.968713   4.892274   6.286850
    36  H    0.993449   2.869887   3.416182   2.658926   3.869544
                   31         32         33         34         35
    31  H    0.000000
    32  H    2.458335   0.000000
    33  H    2.326083   1.785059   0.000000
    34  H    6.098601   6.672193   4.907591   0.000000
    35  H    5.499818   3.529356   3.692640   6.730297   0.000000
    36  H    4.407434   3.430823   4.185602   7.752985   3.498091
                   36
    36  H    0.000000
 Stoichiometry    C6H15CuN2O10P2(1+,2)
 Framework group  C1[X(C6H15CuN2O10P2)]
 Deg. of freedom   102
 Full point group                 C1      NOp   1
 Largest Abelian subgroup         C1      NOp   1
 Largest concise Abelian subgroup C1      NOp   1
                         Standard orientation:                         
 ---------------------------------------------------------------------
 Center     Atomic      Atomic             Coordinates (Angstroms)
 Number     Number       Type             X           Y           Z
 ---------------------------------------------------------------------
      1          6           0       -3.079322   -1.613353    0.085762
      2          6           0       -2.732722   -1.071760   -1.287815
      3          7           0       -1.795060    0.054599   -1.153378
      4          8           0       -4.146366   -2.402828    0.046060
      5          8           0       -2.450073   -1.365474    1.091475
      6          6           0       -2.445167    1.357097   -0.860363
      7         15           0       -1.218732    2.322972    0.091161
      8          8           0       -0.107860    2.885586   -0.875554
      9          8           0       -0.688530    1.395287    1.171170
     10          8           0       -2.032432    3.580285    0.605045
     11          1           0        0.642439    2.216564   -0.998897
     12         29           0       -0.412746   -0.416571    0.378971
     13          1           0       -4.302432   -2.772359    0.932164
     14          1           0       -1.223557    0.122748   -1.993103
     15          1           0       -2.235454   -1.883428   -1.833227
     16          1           0       -3.647894   -0.805034   -1.833120
     17          1           0       -2.787024    1.881034   -1.762040
     18          1           0       -3.307144    1.194401   -0.201637
     19          6           0        1.260369   -2.382782   -0.350150
     20          8           0        0.065070   -1.978867   -0.638069
     21          8           0        2.066919   -2.839703   -1.155172
     22          6           0        1.635454   -2.213373    1.133952
     23          7           0        1.195271   -0.861956    1.586276
     24          6           0        2.269545    0.156476    1.481520
     25         15           0        2.732365    0.532946   -0.257804
     26          8           0        3.656732   -0.608615   -0.846928
     27          8           0        1.503484    0.862058   -1.060714
     28          8           0        3.748691    1.737138   -0.023914
     29          1           0        2.708507   -2.367730    1.292866
     30          1           0        1.083078   -2.973365    1.697995
     31          1           0        0.887208   -0.892387    2.555519
     32          1           0        3.171787   -0.152538    2.029465
     33          1           0        1.903380    1.097724    1.909366
     34          1           0       -1.528672    4.399520    0.724623
     35          1           0        4.514860    1.758586   -0.616307
     36          1           0        3.210561   -1.443225   -1.149084
 ---------------------------------------------------------------------
 Rotational constants (GHZ):           0.3381437           0.2367779           0.1657958
 Standard basis: def2TZVP (5D, 7F)
 There are   874 symmetry adapted cartesian basis functions of A   symmetry.
 There are   767 symmetry adapted basis functions of A   symmetry.
   767 basis functions,  1278 primitive gaussians,   874 cartesian basis functions
   102 alpha electrons      101 beta electrons
       nuclear repulsion energy      3125.3889351791 Hartrees.
 NAtoms=   36 NActive=   36 NUniq=   36 SFac= 1.00D+00 NAtFMM=   60 NAOKFM=F Big=F
 Integral buffers will be    131072 words long.
 Raffenetti 2 integral format.
 Two-electron integral symmetry is turned on.
 Nuclear repulsion after empirical dispersion term =     3125.3799131080 Hartrees.
 One-electron integrals computed using PRISM.
   1 Symmetry operations used in ECPInt.
 ECPInt:  NShTT=   44850 NPrTT=  146642 LenC2=   39357 LenP2D=   88239.
 LDataN:  DoStor=T MaxTD1= 6 Len=  172
 NBasis=   767 RedAO= T EigKep=  1.47D-04  NBF=   767
 NBsUse=   767 1.00D-06 EigRej= -1.00D+00 NBFU=   767
 ExpMin= 3.88D-02 ExpMax= 3.78D+05 ExpMxC= 3.65D+03 IAcc=3 IRadAn=         5 AccDes= 0.00D+00
 Harris functional with IExCor= 1009 and IRadAn=       5 diagonalized for initial guess.
 HarFok:  IExCor= 1009 AccDes= 0.00D+00 IRadAn=         5 IDoV= 1 UseB2=F ITyADJ=14
 ICtDFT=  3500011 ScaDFX=  1.000000  1.000000  1.000000  1.000000
 FoFCou: FMM=F IPFlag=           0 FMFlag=      100000 FMFlg1=           0
         NFxFlg=           0 DoJE=T BraDBF=F KetDBF=T FulRan=T
         wScrn=  0.000000 ICntrl=       500 IOpCl=  0 I1Cent=   200000004 NGrid=           0
         NMat0=    1 NMatS0=      1 NMatT0=    0 NMatD0=    1 NMtDS0=    0 NMtDT0=    0
 Petite list used in FoFCou.
 Initial guess <Sx>= 0.0000 <Sy>= 0.0000 <Sz>= 0.5000 <S**2>= 0.7500 S= 0.5000
 Requested convergence on RMS density matrix=1.00D-08 within  32 cycles.
 Requested convergence on MAX density matrix=1.00D-06.
 Requested convergence on             energy=1.00D-06.
 No special actions if energy rises.
 EnCoef did     3 forward-backward iterations
 Restarting incremental Fock formation.
 SCF Done:  E(UM06) =  -3422.61020769     A.U. after   24 cycles
            NFock= 24  Conv=0.34D-08     -V/T= 2.0024
 <Sx>= 0.0000 <Sy>= 0.0000 <Sz>= 0.5000 <S**2>= 0.7530 S= 0.5015
 <L.S>= 0.000000000000E+00
 Annihilation of the first spin contaminant:
 S**2 before annihilation     0.7530,   after     0.7500
 QCSCF skips out because SCF is already converged.

 **********************************************************************

            Population analysis using the SCF Density.

 **********************************************************************

 Orbital symmetries:
 Alpha Orbitals:
       Occupied  (A) (A) (A) (A) (A) (A) (A) (A) (A) (A) (A) (A)
                 (A) (A) (A) (A) (A) (A) (A) (A) (A) (A) (A) (A)
                 (A) (A) (A) (A) (A) (A) (A) (A) (A) (A) (A) (A)
                 (A) (A) (A) (A) (A) (A) (A) (A) (A) (A) (A) (A)
                 (A) (A) (A) (A) (A) (A) (A) (A) (A) (A) (A) (A)
                 (A) (A) (A) (A) (A) (A) (A) (A) (A) (A) (A) (A)
                 (A) (A) (A) (A) (A) (A) (A) (A) (A) (A) (A) (A)
                 (A) (A) (A) (A) (A) (A) (A) (A) (A) (A) (A) (A)
                 (A) (A) (A) (A) (A) (A)
       Virtual   (A) (A) (A) (A) (A) (A) (A) (A) (A) (A) (A) (A)
                 (A) (A) (A) (A) (A) (A) (A) (A) (A) (A) (A) (A)
                 (A) (A) (A) (A) (A) (A) (A) (A) (A) (A) (A) (A)
                 (A) (A) (A) (A) (A) (A) (A) (A) (A) (A) (A) (A)
                 (A) (A) (A) (A) (A) (A) (A) (A) (A) (A) (A) (A)
                 (A) (A) (A) (A) (A) (A) (A) (A) (A) (A) (A) (A)
                 (A) (A) (A) (A) (A) (A) (A) (A) (A) (A) (A) (A)
                 (A) (A) (A) (A) (A) (A) (A) (A) (A) (A) (A) (A)
                 (A) (A) (A) (A) (A) (A) (A) (A) (A) (A) (A) (A)
                 (A) (A) (A) (A) (A) (A) (A) (A) (A) (A) (A) (A)
                 (A) (A) (A) (A) (A) (A) (A) (A) (A) (A) (A) (A)
                 (A) (A) (A) (A) (A) (A) (A) (A) (A) (A) (A) (A)
                 (A) (A) (A) (A) (A) (A) (A) (A) (A) (A) (A) (A)
                 (A) (A) (A) (A) (A) (A) (A) (A) (A) (A) (A) (A)
                 (A) (A) (A) (A) (A) (A) (A) (A) (A) (A) (A) (A)
                 (A) (A) (A) (A) (A) (A) (A) (A) (A) (A) (A) (A)
                 (A) (A) (A) (A) (A) (A) (A) (A) (A) (A) (A) (A)
                 (A) (A) (A) (A) (A) (A) (A) (A) (A) (A) (A) (A)
                 (A) (A) (A) (A) (A) (A) (A) (A) (A) (A) (A) (A)
                 (A) (A) (A) (A) (A) (A) (A) (A) (A) (A) (A) (A)
                 (A) (A) (A) (A) (A) (A) (A) (A) (A) (A) (A) (A)
                 (A) (A) (A) (A) (A) (A) (A) (A) (A) (A) (A) (A)
                 (A) (A) (A) (A) (A) (A) (A) (A) (A) (A) (A) (A)
                 (A) (A) (A) (A) (A) (A) (A) (A) (A) (A) (A) (A)
                 (A) (A) (A) (A) (A) (A) (A) (A) (A) (A) (A) (A)
                 (A) (A) (A) (A) (A) (A) (A) (A) (A) (A) (A) (A)
                 (A) (A) (A) (A) (A) (A) (A) (A) (A) (A) (A) (A)
                 (A) (A) (A) (A) (A) (A) (A) (A) (A) (A) (A) (A)
                 (A) (A) (A) (A) (A) (A) (A) (A) (A) (A) (A) (A)
                 (A) (A) (A) (A) (A) (A) (A) (A) (A) (A) (A) (A)
                 (A) (A) (A) (A) (A) (A) (A) (A) (A) (A) (A) (A)
                 (A) (A) (A) (A) (A) (A) (A) (A) (A) (A) (A) (A)
                 (A) (A) (A) (A) (A) (A) (A) (A) (A) (A) (A) (A)
                 (A) (A) (A) (A) (A) (A) (A) (A) (A) (A) (A) (A)
                 (A) (A) (A) (A) (A) (A) (A) (A) (A) (A) (A) (A)
                 (A) (A) (A) (A) (A) (A) (A) (A) (A) (A) (A) (A)
                 (A) (A) (A) (A) (A) (A) (A) (A) (A) (A) (A) (A)
                 (A) (A) (A) (A) (A) (A) (A) (A) (A) (A) (A) (A)
                 (A) (A) (A) (A) (A) (A) (A) (A) (A) (A) (A) (A)
                 (A) (A) (A) (A) (A) (A) (A) (A) (A) (A) (A) (A)
                 (A) (A) (A) (A) (A) (A) (A) (A) (A) (A) (A) (A)
                 (A) (A) (A) (A) (A) (A) (A) (A) (A) (A) (A) (A)
                 (A) (A) (A) (A) (A) (A) (A) (A) (A) (A) (A) (A)
                 (A) (A) (A) (A) (A) (A) (A) (A) (A) (A) (A) (A)
                 (A) (A) (A) (A) (A) (A) (A) (A) (A) (A) (A) (A)
                 (A) (A) (A) (A) (A) (A) (A) (A) (A) (A) (A) (A)
                 (A) (A) (A) (A) (A) (A) (A) (A) (A) (A) (A) (A)
                 (A) (A) (A) (A) (A) (A) (A) (A) (A) (A) (A) (A)
                 (A) (A) (A) (A) (A) (A) (A) (A) (A) (A) (A) (A)
                 (A) (A) (A) (A) (A) (A) (A) (A) (A) (A) (A) (A)
                 (A) (A) (A) (A) (A) (A) (A) (A) (A) (A) (A) (A)
                 (A) (A) (A) (A) (A) (A) (A) (A) (A) (A) (A) (A)
                 (A) (A) (A) (A) (A) (A) (A) (A) (A) (A) (A) (A)
                 (A) (A) (A) (A) (A) (A) (A) (A) (A) (A) (A) (A)
                 (A) (A) (A) (A) (A) (A) (A) (A) (A) (A) (A) (A)
                 (A) (A) (A) (A) (A)
 Beta  Orbitals:
       Occupied  (A) (A) (A) (A) (A) (A) (A) (A) (A) (A) (A) (A)
                 (A) (A) (A) (A) (A) (A) (A) (A) (A) (A) (A) (A)
                 (A) (A) (A) (A) (A) (A) (A) (A) (A) (A) (A) (A)
                 (A) (A) (A) (A) (A) (A) (A) (A) (A) (A) (A) (A)
                 (A) (A) (A) (A) (A) (A) (A) (A) (A) (A) (A) (A)
                 (A) (A) (A) (A) (A) (A) (A) (A) (A) (A) (A) (A)
                 (A) (A) (A) (A) (A) (A) (A) (A) (A) (A) (A) (A)
                 (A) (A) (A) (A) (A) (A) (A) (A) (A) (A) (A) (A)
                 (A) (A) (A) (A) (A)
       Virtual   (A) (A) (A) (A) (A) (A) (A) (A) (A) (A) (A) (A)
                 (A) (A) (A) (A) (A) (A) (A) (A) (A) (A) (A) (A)
                 (A) (A) (A) (A) (A) (A) (A) (A) (A) (A) (A) (A)
                 (A) (A) (A) (A) (A) (A) (A) (A) (A) (A) (A) (A)
                 (A) (A) (A) (A) (A) (A) (A) (A) (A) (A) (A) (A)
                 (A) (A) (A) (A) (A) (A) (A) (A) (A) (A) (A) (A)
                 (A) (A) (A) (A) (A) (A) (A) (A) (A) (A) (A) (A)
                 (A) (A) (A) (A) (A) (A) (A) (A) (A) (A) (A) (A)
                 (A) (A) (A) (A) (A) (A) (A) (A) (A) (A) (A) (A)
                 (A) (A) (A) (A) (A) (A) (A) (A) (A) (A) (A) (A)
                 (A) (A) (A) (A) (A) (A) (A) (A) (A) (A) (A) (A)
                 (A) (A) (A) (A) (A) (A) (A) (A) (A) (A) (A) (A)
                 (A) (A) (A) (A) (A) (A) (A) (A) (A) (A) (A) (A)
                 (A) (A) (A) (A) (A) (A) (A) (A) (A) (A) (A) (A)
                 (A) (A) (A) (A) (A) (A) (A) (A) (A) (A) (A) (A)
                 (A) (A) (A) (A) (A) (A) (A) (A) (A) (A) (A) (A)
                 (A) (A) (A) (A) (A) (A) (A) (A) (A) (A) (A) (A)
                 (A) (A) (A) (A) (A) (A) (A) (A) (A) (A) (A) (A)
                 (A) (A) (A) (A) (A) (A) (A) (A) (A) (A) (A) (A)
                 (A) (A) (A) (A) (A) (A) (A) (A) (A) (A) (A) (A)
                 (A) (A) (A) (A) (A) (A) (A) (A) (A) (A) (A) (A)
                 (A) (A) (A) (A) (A) (A) (A) (A) (A) (A) (A) (A)
                 (A) (A) (A) (A) (A) (A) (A) (A) (A) (A) (A) (A)
                 (A) (A) (A) (A) (A) (A) (A) (A) (A) (A) (A) (A)
                 (A) (A) (A) (A) (A) (A) (A) (A) (A) (A) (A) (A)
                 (A) (A) (A) (A) (A) (A) (A) (A) (A) (A) (A) (A)
                 (A) (A) (A) (A) (A) (A) (A) (A) (A) (A) (A) (A)
                 (A) (A) (A) (A) (A) (A) (A) (A) (A) (A) (A) (A)
                 (A) (A) (A) (A) (A) (A) (A) (A) (A) (A) (A) (A)
                 (A) (A) (A) (A) (A) (A) (A) (A) (A) (A) (A) (A)
                 (A) (A) (A) (A) (A) (A) (A) (A) (A) (A) (A) (A)
                 (A) (A) (A) (A) (A) (A) (A) (A) (A) (A) (A) (A)
                 (A) (A) (A) (A) (A) (A) (A) (A) (A) (A) (A) (A)
                 (A) (A) (A) (A) (A) (A) (A) (A) (A) (A) (A) (A)
                 (A) (A) (A) (A) (A) (A) (A) (A) (A) (A) (A) (A)
                 (A) (A) (A) (A) (A) (A) (A) (A) (A) (A) (A) (A)
                 (A) (A) (A) (A) (A) (A) (A) (A) (A) (A) (A) (A)
                 (A) (A) (A) (A) (A) (A) (A) (A) (A) (A) (A) (A)
                 (A) (A) (A) (A) (A) (A) (A) (A) (A) (A) (A) (A)
                 (A) (A) (A) (A) (A) (A) (A) (A) (A) (A) (A) (A)
                 (A) (A) (A) (A) (A) (A) (A) (A) (A) (A) (A) (A)
                 (A) (A) (A) (A) (A) (A) (A) (A) (A) (A) (A) (A)
                 (A) (A) (A) (A) (A) (A) (A) (A) (A) (A) (A) (A)
                 (A) (A) (A) (A) (A) (A) (A) (A) (A) (A) (A) (A)
                 (A) (A) (A) (A) (A) (A) (A) (A) (A) (A) (A) (A)
                 (A) (A) (A) (A) (A) (A) (A) (A) (A) (A) (A) (A)
                 (A) (A) (A) (A) (A) (A) (A) (A) (A) (A) (A) (A)
                 (A) (A) (A) (A) (A) (A) (A) (A) (A) (A) (A) (A)
                 (A) (A) (A) (A) (A) (A) (A) (A) (A) (A) (A) (A)
                 (A) (A) (A) (A) (A) (A) (A) (A) (A) (A) (A) (A)
                 (A) (A) (A) (A) (A) (A) (A) (A) (A) (A) (A) (A)
                 (A) (A) (A) (A) (A) (A) (A) (A) (A) (A) (A) (A)
                 (A) (A) (A) (A) (A) (A) (A) (A) (A) (A) (A) (A)
                 (A) (A) (A) (A) (A) (A) (A) (A) (A) (A) (A) (A)
                 (A) (A) (A) (A) (A) (A) (A) (A) (A) (A) (A) (A)
                 (A) (A) (A) (A) (A) (A)
 The electronic state is 2-A.
 Alpha  occ. eigenvalues -- -323.51324 -77.49666 -77.48805 -39.29200 -34.41388
 Alpha  occ. eigenvalues --  -34.41084 -34.38680 -19.39984 -19.39381 -19.38063
 Alpha  occ. eigenvalues --  -19.37275 -19.36916 -19.35433 -19.34540 -19.32604
 Alpha  occ. eigenvalues --  -19.32602 -19.29840 -14.59020 -14.59013 -10.52658
 Alpha  occ. eigenvalues --  -10.47746 -10.43617 -10.43414 -10.42900 -10.41402
 Alpha  occ. eigenvalues --   -6.90157  -6.89246  -5.02246  -5.02061  -5.01970
 Alpha  occ. eigenvalues --   -5.01358  -5.01170  -5.01024  -4.65044  -3.12302
 Alpha  occ. eigenvalues --   -3.11748  -3.07360  -1.28150  -1.25340  -1.24255
 Alpha  occ. eigenvalues --   -1.20955  -1.20088  -1.19746  -1.18906  -1.15923
 Alpha  occ. eigenvalues --   -1.14347  -1.12727  -1.10928  -1.10098  -0.92037
 Alpha  occ. eigenvalues --   -0.89426  -0.86333  -0.84185  -0.78628  -0.76972
 Alpha  occ. eigenvalues --   -0.76658  -0.71999  -0.71506  -0.70038  -0.69326
 Alpha  occ. eigenvalues --   -0.69006  -0.67747  -0.66393  -0.66205  -0.63866
 Alpha  occ. eigenvalues --   -0.63625  -0.63394  -0.62479  -0.62273  -0.61749
 Alpha  occ. eigenvalues --   -0.61065  -0.60075  -0.59355  -0.57851  -0.57528
 Alpha  occ. eigenvalues --   -0.56894  -0.56788  -0.56478  -0.55962  -0.55677
 Alpha  occ. eigenvalues --   -0.55008  -0.54600  -0.54169  -0.53953  -0.52997
 Alpha  occ. eigenvalues --   -0.52825  -0.52769  -0.51907  -0.51469  -0.50247
 Alpha  occ. eigenvalues --   -0.49377  -0.49099  -0.48500  -0.48295  -0.47163
 Alpha  occ. eigenvalues --   -0.46694  -0.45937  -0.45588  -0.44124  -0.42280
 Alpha  occ. eigenvalues --   -0.41360  -0.39230
 Alpha virt. eigenvalues --   -0.14220  -0.13516  -0.11488  -0.10229  -0.09209
 Alpha virt. eigenvalues --   -0.09125  -0.08527  -0.07278  -0.06495  -0.06198
 Alpha virt. eigenvalues --   -0.05493  -0.05285  -0.04941  -0.04458  -0.04107
 Alpha virt. eigenvalues --   -0.03853  -0.02756  -0.02473  -0.01567  -0.00760
 Alpha virt. eigenvalues --   -0.00168   0.00551   0.00905   0.01293   0.01479
 Alpha virt. eigenvalues --    0.01953   0.02530   0.03259   0.03625   0.04697
 Alpha virt. eigenvalues --    0.04960   0.05991   0.07022   0.07138   0.07633
 Alpha virt. eigenvalues --    0.08212   0.08956   0.09956   0.11214   0.11391
 Alpha virt. eigenvalues --    0.11582   0.11867   0.12740   0.13274   0.13447
 Alpha virt. eigenvalues --    0.14845   0.15456   0.16359   0.16655   0.16808
 Alpha virt. eigenvalues --    0.17278   0.17625   0.18286   0.18911   0.19395
 Alpha virt. eigenvalues --    0.19856   0.20106   0.20893   0.21076   0.21935
 Alpha virt. eigenvalues --    0.22420   0.23256   0.23387   0.23554   0.24725
 Alpha virt. eigenvalues --    0.25138   0.25258   0.25481   0.25963   0.26229
 Alpha virt. eigenvalues --    0.26582   0.26910   0.27452   0.27845   0.28280
 Alpha virt. eigenvalues --    0.28766   0.29192   0.29476   0.30236   0.30870
 Alpha virt. eigenvalues --    0.31321   0.31775   0.31873   0.32357   0.32653
 Alpha virt. eigenvalues --    0.33652   0.34690   0.35735   0.35980   0.36522
 Alpha virt. eigenvalues --    0.36814   0.37007   0.37782   0.38251   0.38919
 Alpha virt. eigenvalues --    0.39577   0.40162   0.40300   0.40769   0.42199
 Alpha virt. eigenvalues --    0.42731   0.43307   0.44082   0.44400   0.45227
 Alpha virt. eigenvalues --    0.45504   0.46381   0.47372   0.48636   0.49131
 Alpha virt. eigenvalues --    0.49965   0.50868   0.51545   0.52174   0.52662
 Alpha virt. eigenvalues --    0.53673   0.53901   0.54478   0.55782   0.56238
 Alpha virt. eigenvalues --    0.56661   0.57631   0.58145   0.58808   0.59518
 Alpha virt. eigenvalues --    0.60072   0.60646   0.61267   0.62183   0.62526
 Alpha virt. eigenvalues --    0.62858   0.65011   0.65580   0.65989   0.66308
 Alpha virt. eigenvalues --    0.67524   0.68071   0.68574   0.69621   0.70178
 Alpha virt. eigenvalues --    0.70593   0.72164   0.72228   0.72874   0.73524
 Alpha virt. eigenvalues --    0.74615   0.74889   0.74958   0.75898   0.76416
 Alpha virt. eigenvalues --    0.76819   0.77839   0.78398   0.80130   0.80989
 Alpha virt. eigenvalues --    0.81881   0.82817   0.83817   0.85123   0.85670
 Alpha virt. eigenvalues --    0.86373   0.88507   0.89767   0.90413   0.91040
 Alpha virt. eigenvalues --    0.92010   0.93437   0.94037   0.94780   0.95922
 Alpha virt. eigenvalues --    0.96734   0.98686   0.99646   1.00497   1.01284
 Alpha virt. eigenvalues --    1.01608   1.02460   1.04454   1.04853   1.05343
 Alpha virt. eigenvalues --    1.07113   1.07806   1.08498   1.09545   1.10670
 Alpha virt. eigenvalues --    1.11772   1.13198   1.14503   1.15276   1.15612
 Alpha virt. eigenvalues --    1.16765   1.17544   1.19049   1.19399   1.20554
 Alpha virt. eigenvalues --    1.21023   1.21989   1.22739   1.23351   1.24097
 Alpha virt. eigenvalues --    1.24640   1.25388   1.26566   1.27391   1.28150
 Alpha virt. eigenvalues --    1.29145   1.30316   1.30800   1.31653   1.32215
 Alpha virt. eigenvalues --    1.32759   1.32966   1.34138   1.35117   1.36153
 Alpha virt. eigenvalues --    1.36887   1.37816   1.38555   1.39632   1.39893
 Alpha virt. eigenvalues --    1.40128   1.41783   1.42500   1.43478   1.44198
 Alpha virt. eigenvalues --    1.45502   1.45988   1.46662   1.47478   1.47855
 Alpha virt. eigenvalues --    1.48688   1.49832   1.50713   1.51630   1.52360
 Alpha virt. eigenvalues --    1.53225   1.54610   1.55165   1.55869   1.56958
 Alpha virt. eigenvalues --    1.57544   1.59625   1.60131   1.61439   1.62913
 Alpha virt. eigenvalues --    1.64612   1.65230   1.66478   1.67501   1.68236
 Alpha virt. eigenvalues --    1.68907   1.69671   1.70269   1.70374   1.71346
 Alpha virt. eigenvalues --    1.71898   1.73079   1.73561   1.75626   1.76103
 Alpha virt. eigenvalues --    1.77325   1.78481   1.78507   1.79062   1.79820
 Alpha virt. eigenvalues --    1.80394   1.81907   1.81933   1.82219   1.83541
 Alpha virt. eigenvalues --    1.84018   1.85389   1.85777   1.86348   1.87366
 Alpha virt. eigenvalues --    1.88737   1.89154   1.89416   1.90205   1.90396
 Alpha virt. eigenvalues --    1.91502   1.93098   1.93664   1.94227   1.95980
 Alpha virt. eigenvalues --    1.96202   1.96253   1.97548   1.98368   1.99136
 Alpha virt. eigenvalues --    1.99411   2.00625   2.01062   2.03073   2.03830
 Alpha virt. eigenvalues --    2.04091   2.05128   2.05780   2.06845   2.07858
 Alpha virt. eigenvalues --    2.08101   2.08717   2.09500   2.09896   2.11070
 Alpha virt. eigenvalues --    2.11330   2.11745   2.13509   2.14158   2.15341
 Alpha virt. eigenvalues --    2.16522   2.16863   2.18321   2.18752   2.19189
 Alpha virt. eigenvalues --    2.21459   2.22126   2.22815   2.23798   2.24117
 Alpha virt. eigenvalues --    2.25176   2.25246   2.26776   2.27910   2.29615
 Alpha virt. eigenvalues --    2.29929   2.31225   2.31908   2.32646   2.33332
 Alpha virt. eigenvalues --    2.34249   2.35012   2.35860   2.36618   2.37440
 Alpha virt. eigenvalues --    2.38835   2.39523   2.41404   2.41836   2.42638
 Alpha virt. eigenvalues --    2.44692   2.46433   2.47639   2.48646   2.49235
 Alpha virt. eigenvalues --    2.49524   2.51081   2.51536   2.52659   2.52771
 Alpha virt. eigenvalues --    2.54426   2.55420   2.56253   2.59422   2.60507
 Alpha virt. eigenvalues --    2.61404   2.62428   2.63883   2.64592   2.66561
 Alpha virt. eigenvalues --    2.67213   2.67996   2.70101   2.71532   2.72267
 Alpha virt. eigenvalues --    2.73401   2.73897   2.74610   2.76195   2.76508
 Alpha virt. eigenvalues --    2.77967   2.78104   2.80689   2.80827   2.82413
 Alpha virt. eigenvalues --    2.83375   2.84426   2.85301   2.86041   2.87399
 Alpha virt. eigenvalues --    2.87607   2.89556   2.90610   2.90873   2.91605
 Alpha virt. eigenvalues --    2.92387   2.93183   2.93431   2.94885   2.95903
 Alpha virt. eigenvalues --    2.96884   2.97697   2.97776   2.98443   2.99079
 Alpha virt. eigenvalues --    2.99721   2.99983   3.01729   3.02022   3.03759
 Alpha virt. eigenvalues --    3.04759   3.05438   3.05829   3.06696   3.08823
 Alpha virt. eigenvalues --    3.09709   3.11093   3.12267   3.12988   3.13916
 Alpha virt. eigenvalues --    3.14925   3.15593   3.15802   3.18451   3.18785
 Alpha virt. eigenvalues --    3.20028   3.20241   3.21876   3.22330   3.23954
 Alpha virt. eigenvalues --    3.24267   3.25466   3.26374   3.27884   3.29004
 Alpha virt. eigenvalues --    3.29790   3.30941   3.31413   3.32393   3.34418
 Alpha virt. eigenvalues --    3.34870   3.36089   3.37242   3.38997   3.39913
 Alpha virt. eigenvalues --    3.42084   3.43551   3.45617   3.46881   3.48670
 Alpha virt. eigenvalues --    3.48746   3.49857   3.52223   3.53773   3.55124
 Alpha virt. eigenvalues --    3.57981   3.58832   3.63291   3.63650   3.64532
 Alpha virt. eigenvalues --    3.64770   3.66463   3.67948   3.68212   3.69109
 Alpha virt. eigenvalues --    3.73925   3.74841   3.74909   3.78181   3.78722
 Alpha virt. eigenvalues --    3.80312   3.81072   3.84804   3.85657   3.86583
 Alpha virt. eigenvalues --    3.87413   3.89104   3.90159   3.91231   3.92340
 Alpha virt. eigenvalues --    3.94736   3.95481   3.96103   3.97057   3.98672
 Alpha virt. eigenvalues --    4.02761   4.06905   4.08375   4.16787   4.19758
 Alpha virt. eigenvalues --    4.21452   4.28462   4.31215   4.32910   4.33442
 Alpha virt. eigenvalues --    4.35571   4.41594   4.45518   4.52186   4.56845
 Alpha virt. eigenvalues --    4.58074   4.59942   4.66529   4.69484   4.82636
 Alpha virt. eigenvalues --    4.83420   4.85472   4.90487   4.91213   4.96230
 Alpha virt. eigenvalues --    4.96519   4.97142   4.97671   4.98672   4.99518
 Alpha virt. eigenvalues --    5.00010   5.01108   5.01978   5.02282   5.02889
 Alpha virt. eigenvalues --    5.03554   5.03766   5.04095   5.04783   5.05014
 Alpha virt. eigenvalues --    5.05365   5.06460   5.07370   5.08097   5.08427
 Alpha virt. eigenvalues --    5.08795   5.09096   5.09702   5.10816   5.11479
 Alpha virt. eigenvalues --    5.12037   5.12268   5.13371   5.13731   5.15184
 Alpha virt. eigenvalues --    5.16181   5.17653   5.19163   5.20612   5.21349
 Alpha virt. eigenvalues --    5.22348   5.22991   5.23779   5.24049   5.24678
 Alpha virt. eigenvalues --    5.25262   5.25819   5.27311   5.27600   5.29052
 Alpha virt. eigenvalues --    5.30098   5.31522   5.33169   5.35022   5.37145
 Alpha virt. eigenvalues --    5.37194   5.39013   5.39573   5.40397   5.40558
 Alpha virt. eigenvalues --    5.42312   5.44108   5.45484   5.46792   5.48198
 Alpha virt. eigenvalues --    5.50472   5.51248   5.52881   5.56935   5.60180
 Alpha virt. eigenvalues --    5.60317   5.61775   5.62566   5.62742   5.63208
 Alpha virt. eigenvalues --    5.64793   5.66723   5.69297   5.75651   5.77177
 Alpha virt. eigenvalues --    5.80091   5.93929   5.95910   6.02408   6.03317
 Alpha virt. eigenvalues --    6.03879   6.05742   6.07001   6.07642   6.08665
 Alpha virt. eigenvalues --    6.23092   6.24776   6.27925   6.28311   6.29282
 Alpha virt. eigenvalues --    6.32172   6.33667   6.34569   6.36877   6.39302
 Alpha virt. eigenvalues --    6.41909   6.44776   6.45211   6.47430   6.49146
 Alpha virt. eigenvalues --    6.49814   6.51174   6.52605   6.54708   6.55180
 Alpha virt. eigenvalues --    6.56780   6.57471   6.58844   6.60856   6.61830
 Alpha virt. eigenvalues --    6.62268   6.63884   6.65736   6.66821   6.68063
 Alpha virt. eigenvalues --    6.68783   6.70681   6.71215   6.72373   6.74445
 Alpha virt. eigenvalues --    6.74842   6.78131   6.79560   6.80971   6.84200
 Alpha virt. eigenvalues --    6.85529   6.86968   6.87156   6.88035   6.92745
 Alpha virt. eigenvalues --    6.96515   7.02635   7.03647   7.05569   7.06790
 Alpha virt. eigenvalues --    7.08168   7.09071   7.13229   7.18416   7.71157
 Alpha virt. eigenvalues --    7.75644   7.91141   7.91459   8.10088   8.14185
 Alpha virt. eigenvalues --   16.68928  16.69322  22.20770  22.25418  22.31759
 Alpha virt. eigenvalues --   22.34497  23.16522  23.30882  32.20030  32.23919
 Alpha virt. eigenvalues --   43.45417  43.50338  43.54730  43.59712  43.67520
 Alpha virt. eigenvalues --   43.70633  43.73616  43.80834  43.85706  43.96052
  Beta  occ. eigenvalues -- -323.51297 -77.49664 -77.48804 -39.27727 -34.39486
  Beta  occ. eigenvalues --  -34.39339 -34.38069 -19.39984 -19.39374 -19.38064
  Beta  occ. eigenvalues --  -19.37274 -19.36915 -19.35431 -19.34403 -19.32602
  Beta  occ. eigenvalues --  -19.32319 -19.29794 -14.58805 -14.58776 -10.52655
  Beta  occ. eigenvalues --  -10.47756 -10.43625 -10.43422 -10.42907 -10.41411
  Beta  occ. eigenvalues --   -6.90154  -6.89245  -5.02242  -5.02058  -5.01961
  Beta  occ. eigenvalues --   -5.01357  -5.01168  -5.01023  -4.59664  -3.05319
  Beta  occ. eigenvalues --   -3.05149  -3.04967  -1.28145  -1.25292  -1.24249
  Beta  occ. eigenvalues --   -1.20568  -1.20065  -1.19735  -1.18866  -1.15604
  Beta  occ. eigenvalues --   -1.14322  -1.12275  -1.10575  -1.09663  -0.91996
  Beta  occ. eigenvalues --   -0.89368  -0.86240  -0.84066  -0.78560  -0.76919
  Beta  occ. eigenvalues --   -0.76586  -0.71982  -0.71486  -0.69641  -0.69098
  Beta  occ. eigenvalues --   -0.68652  -0.67423  -0.66240  -0.65916  -0.63639
  Beta  occ. eigenvalues --   -0.63238  -0.62825  -0.62267  -0.62021  -0.61488
  Beta  occ. eigenvalues --   -0.60390  -0.59901  -0.58693  -0.57377  -0.56823
  Beta  occ. eigenvalues --   -0.56612  -0.56320  -0.55885  -0.55703  -0.54553
  Beta  occ. eigenvalues --   -0.54331  -0.53415  -0.52777  -0.52265  -0.52155
  Beta  occ. eigenvalues --   -0.51819  -0.51194  -0.50669  -0.49881  -0.49637
  Beta  occ. eigenvalues --   -0.49201  -0.48562  -0.48108  -0.47440  -0.46616
  Beta  occ. eigenvalues --   -0.46220  -0.45514  -0.44744  -0.43090  -0.41595
  Beta  occ. eigenvalues --   -0.39711
  Beta virt. eigenvalues --   -0.24993  -0.14192  -0.13484  -0.11437  -0.10189
  Beta virt. eigenvalues --   -0.09217  -0.09058  -0.08506  -0.07268  -0.06507
  Beta virt. eigenvalues --   -0.06175  -0.05466  -0.05269  -0.04924  -0.04386
  Beta virt. eigenvalues --   -0.04057  -0.03845  -0.02767  -0.02460  -0.01572
  Beta virt. eigenvalues --   -0.00714  -0.00131   0.00570   0.00946   0.01345
  Beta virt. eigenvalues --    0.01602   0.02014   0.02562   0.03325   0.03678
  Beta virt. eigenvalues --    0.04727   0.05006   0.06030   0.06964   0.07171
  Beta virt. eigenvalues --    0.07661   0.08293   0.08977   0.09980   0.11261
  Beta virt. eigenvalues --    0.11380   0.11623   0.11868   0.12770   0.13312
  Beta virt. eigenvalues --    0.13459   0.14844   0.15494   0.16384   0.16681
  Beta virt. eigenvalues --    0.16815   0.17303   0.17642   0.18329   0.18923
  Beta virt. eigenvalues --    0.19403   0.19868   0.20123   0.20924   0.21102
  Beta virt. eigenvalues --    0.21961   0.22451   0.23284   0.23407   0.23573
  Beta virt. eigenvalues --    0.24733   0.25157   0.25276   0.25498   0.25984
  Beta virt. eigenvalues --    0.26273   0.26634   0.26939   0.27468   0.27877
  Beta virt. eigenvalues --    0.28322   0.28790   0.29255   0.29530   0.30326
  Beta virt. eigenvalues --    0.30919   0.31370   0.31844   0.31939   0.32402
  Beta virt. eigenvalues --    0.32667   0.33712   0.34754   0.35786   0.36017
  Beta virt. eigenvalues --    0.36532   0.36854   0.37019   0.37829   0.38248
  Beta virt. eigenvalues --    0.38933   0.39591   0.40190   0.40321   0.40797
  Beta virt. eigenvalues --    0.42217   0.42755   0.43315   0.44121   0.44396
  Beta virt. eigenvalues --    0.45256   0.45522   0.46400   0.47402   0.48659
  Beta virt. eigenvalues --    0.49133   0.49971   0.50918   0.51571   0.52201
  Beta virt. eigenvalues --    0.52663   0.53722   0.53913   0.54495   0.55809
  Beta virt. eigenvalues --    0.56247   0.56677   0.57661   0.58161   0.58839
  Beta virt. eigenvalues --    0.59530   0.60095   0.60668   0.61257   0.62221
  Beta virt. eigenvalues --    0.62553   0.62904   0.65032   0.65578   0.66025
  Beta virt. eigenvalues --    0.66322   0.67535   0.68093   0.68590   0.69660
  Beta virt. eigenvalues --    0.70188   0.70605   0.72206   0.72240   0.72902
  Beta virt. eigenvalues --    0.73533   0.74646   0.74933   0.74998   0.75902
  Beta virt. eigenvalues --    0.76425   0.76852   0.77861   0.78463   0.80183
  Beta virt. eigenvalues --    0.81064   0.81924   0.82836   0.83879   0.85181
  Beta virt. eigenvalues --    0.85671   0.86416   0.88562   0.89792   0.90526
  Beta virt. eigenvalues --    0.91041   0.92070   0.93458   0.94070   0.94850
  Beta virt. eigenvalues --    0.96005   0.96775   0.99007   0.99687   1.00770
  Beta virt. eigenvalues --    1.01328   1.01772   1.02528   1.04482   1.04879
  Beta virt. eigenvalues --    1.05420   1.07302   1.07936   1.08697   1.09562
  Beta virt. eigenvalues --    1.10679   1.11797   1.13240   1.14526   1.15293
  Beta virt. eigenvalues --    1.15667   1.16793   1.17586   1.19069   1.19415
  Beta virt. eigenvalues --    1.20595   1.21090   1.22014   1.22783   1.23398
  Beta virt. eigenvalues --    1.24123   1.24696   1.25413   1.26612   1.27398
  Beta virt. eigenvalues --    1.28156   1.29169   1.30340   1.30861   1.31690
  Beta virt. eigenvalues --    1.32248   1.32791   1.33008   1.34189   1.35157
  Beta virt. eigenvalues --    1.36195   1.36915   1.37859   1.38588   1.39662
  Beta virt. eigenvalues --    1.39917   1.40180   1.41823   1.42543   1.43512
  Beta virt. eigenvalues --    1.44221   1.45547   1.46035   1.46707   1.47533
  Beta virt. eigenvalues --    1.47918   1.48712   1.49901   1.50761   1.51658
  Beta virt. eigenvalues --    1.52390   1.53295   1.54646   1.55222   1.55945
  Beta virt. eigenvalues --    1.56978   1.57599   1.59633   1.60153   1.61492
  Beta virt. eigenvalues --    1.62945   1.64654   1.65251   1.66485   1.67506
  Beta virt. eigenvalues --    1.68231   1.68951   1.69684   1.70288   1.70386
  Beta virt. eigenvalues --    1.71365   1.71902   1.73082   1.73562   1.75667
  Beta virt. eigenvalues --    1.76120   1.77344   1.78478   1.78543   1.79070
  Beta virt. eigenvalues --    1.79838   1.80402   1.81910   1.81992   1.82245
  Beta virt. eigenvalues --    1.83561   1.84031   1.85403   1.85787   1.86360
  Beta virt. eigenvalues --    1.87411   1.88728   1.89171   1.89449   1.90244
  Beta virt. eigenvalues --    1.90381   1.91542   1.93117   1.93650   1.94242
  Beta virt. eigenvalues --    1.95992   1.96221   1.96278   1.97570   1.98382
  Beta virt. eigenvalues --    1.99126   1.99429   2.00651   2.01105   2.03115
  Beta virt. eigenvalues --    2.03849   2.04114   2.05127   2.05787   2.06848
  Beta virt. eigenvalues --    2.07894   2.08104   2.08763   2.09527   2.09922
  Beta virt. eigenvalues --    2.11086   2.11333   2.11779   2.13537   2.14184
  Beta virt. eigenvalues --    2.15356   2.16557   2.16912   2.18336   2.18775
  Beta virt. eigenvalues --    2.19262   2.21502   2.22156   2.22832   2.23842
  Beta virt. eigenvalues --    2.24150   2.25226   2.25297   2.26810   2.27949
  Beta virt. eigenvalues --    2.29641   2.29964   2.31252   2.31925   2.32684
  Beta virt. eigenvalues --    2.33374   2.34262   2.35066   2.35878   2.36700
  Beta virt. eigenvalues --    2.37493   2.38872   2.39605   2.41511   2.41866
  Beta virt. eigenvalues --    2.42755   2.44716   2.46514   2.47667   2.48738
  Beta virt. eigenvalues --    2.49302   2.49622   2.51092   2.51576   2.52784
  Beta virt. eigenvalues --    2.52839   2.54553   2.55569   2.56324   2.59511
  Beta virt. eigenvalues --    2.60569   2.61453   2.62465   2.63934   2.64820
  Beta virt. eigenvalues --    2.66650   2.67360   2.68054   2.70229   2.71612
  Beta virt. eigenvalues --    2.72316   2.73464   2.73972   2.74721   2.76252
  Beta virt. eigenvalues --    2.76646   2.78050   2.78170   2.80762   2.80913
  Beta virt. eigenvalues --    2.82498   2.83421   2.84478   2.85348   2.86106
  Beta virt. eigenvalues --    2.87480   2.87732   2.89606   2.90650   2.90952
  Beta virt. eigenvalues --    2.91644   2.92422   2.93209   2.93453   2.94936
  Beta virt. eigenvalues --    2.95969   2.96958   2.97739   2.97869   2.98492
  Beta virt. eigenvalues --    2.99111   2.99766   3.00021   3.01789   3.02052
  Beta virt. eigenvalues --    3.03789   3.04810   3.05494   3.05867   3.06745
  Beta virt. eigenvalues --    3.08911   3.09759   3.11281   3.12293   3.13017
  Beta virt. eigenvalues --    3.13956   3.14959   3.15700   3.15849   3.18515
  Beta virt. eigenvalues --    3.18842   3.20113   3.20298   3.21955   3.22387
  Beta virt. eigenvalues --    3.24015   3.24355   3.25566   3.26472   3.27939
  Beta virt. eigenvalues --    3.29050   3.29850   3.31067   3.31497   3.32479
  Beta virt. eigenvalues --    3.34490   3.34954   3.36136   3.37264   3.39115
  Beta virt. eigenvalues --    3.40088   3.42159   3.43567   3.45694   3.46914
  Beta virt. eigenvalues --    3.48735   3.48778   3.49914   3.52268   3.53786
  Beta virt. eigenvalues --    3.55184   3.58052   3.58905   3.63389   3.63750
  Beta virt. eigenvalues --    3.64580   3.64838   3.66564   3.68053   3.68264
  Beta virt. eigenvalues --    3.69250   3.74053   3.74962   3.75045   3.78290
  Beta virt. eigenvalues --    3.78882   3.80413   3.81180   3.84865   3.85876
  Beta virt. eigenvalues --    3.86785   3.87476   3.89226   3.90266   3.91382
  Beta virt. eigenvalues --    3.92460   3.94930   3.95582   3.96194   3.97285
  Beta virt. eigenvalues --    3.98734   4.03000   4.07003   4.08482   4.17324
  Beta virt. eigenvalues --    4.19825   4.22814   4.28831   4.31422   4.33046
  Beta virt. eigenvalues --    4.33571   4.35750   4.42053   4.45688   4.52584
  Beta virt. eigenvalues --    4.57044   4.58361   4.60502   4.66702   4.69728
  Beta virt. eigenvalues --    4.82929   4.83983   4.85741   4.90831   4.92073
  Beta virt. eigenvalues --    4.96309   4.96983   4.97218   4.97691   4.98750
  Beta virt. eigenvalues --    4.99664   5.00322   5.01342   5.02098   5.02652
  Beta virt. eigenvalues --    5.02995   5.03873   5.03921   5.04175   5.04970
  Beta virt. eigenvalues --    5.05267   5.05517   5.06759   5.07527   5.08475
  Beta virt. eigenvalues --    5.08626   5.08980   5.09520   5.09820   5.11182
  Beta virt. eigenvalues --    5.11774   5.12147   5.12590   5.13643   5.13837
  Beta virt. eigenvalues --    5.15342   5.16444   5.17768   5.19356   5.20928
  Beta virt. eigenvalues --    5.21555   5.22450   5.23156   5.23913   5.24208
  Beta virt. eigenvalues --    5.24840   5.25351   5.25893   5.27603   5.27889
  Beta virt. eigenvalues --    5.29167   5.30193   5.31576   5.33260   5.35145
  Beta virt. eigenvalues --    5.37150   5.37228   5.39106   5.39625   5.40440
  Beta virt. eigenvalues --    5.40645   5.42655   5.44376   5.45698   5.46940
  Beta virt. eigenvalues --    5.48249   5.50511   5.51279   5.53074   5.58033
  Beta virt. eigenvalues --    5.61022   5.62109   5.63045   5.64023   5.64981
  Beta virt. eigenvalues --    5.65667   5.67152   5.68893   5.69923   5.75716
  Beta virt. eigenvalues --    5.80065   5.80617   5.94045   5.96085   6.02426
  Beta virt. eigenvalues --    6.03321   6.03893   6.05751   6.07023   6.07753
  Beta virt. eigenvalues --    6.08676   6.23102   6.24926   6.27959   6.28357
  Beta virt. eigenvalues --    6.29353   6.32232   6.33727   6.34737   6.37050
  Beta virt. eigenvalues --    6.39791   6.42111   6.44819   6.45259   6.47722
  Beta virt. eigenvalues --    6.49323   6.50150   6.51462   6.52712   6.54812
  Beta virt. eigenvalues --    6.55421   6.56999   6.57570   6.58885   6.61110
  Beta virt. eigenvalues --    6.61897   6.62343   6.64357   6.65847   6.66978
  Beta virt. eigenvalues --    6.68182   6.69125   6.70757   6.71528   6.72561
  Beta virt. eigenvalues --    6.74511   6.74955   6.78370   6.79939   6.81019
  Beta virt. eigenvalues --    6.84468   6.85645   6.87059   6.87366   6.88205
  Beta virt. eigenvalues --    6.92833   6.96630   7.02647   7.03681   7.05770
  Beta virt. eigenvalues --    7.06809   7.08176   7.09478   7.14240   7.18429
  Beta virt. eigenvalues --    7.71203   7.75658   7.91148   7.91465   8.10078
  Beta virt. eigenvalues --    8.14185  16.68933  16.69326  22.20779  22.25426
  Beta virt. eigenvalues --   22.31767  22.34510  23.16526  23.30858  32.20248
  Beta virt. eigenvalues --   32.24129  43.45428  43.50343  43.54735  43.59716
  Beta virt. eigenvalues --   43.67556  43.70693  43.73680  43.80931  43.85719
  Beta virt. eigenvalues --   43.96314
          Condensed to atoms (all electrons):
               1          2          3          4          5          6
     1  C    4.702418   0.166822  -0.018444   0.361681   0.395657  -0.010286
     2  C    0.166822   5.247101   0.169210  -0.108407  -0.055929  -0.036416
     3  N   -0.018444   0.169210   6.662227   0.004541  -0.023500   0.172207
     4  O    0.361681  -0.108407   0.004541   7.919952  -0.068323   0.000176
     5  O    0.395657  -0.055929  -0.023500  -0.068323   8.084982   0.001549
     6  C   -0.010286  -0.036416   0.172207   0.000176   0.001549   5.058297
     7  P    0.002865   0.001184  -0.054095   0.000003   0.000207   0.340831
     8  O   -0.000035   0.000421   0.001751  -0.000000  -0.000004  -0.020940
     9  O    0.005599  -0.004286  -0.033142  -0.000004  -0.007757  -0.021903
    10  O   -0.000004  -0.000059   0.001699   0.000000  -0.000016  -0.031122
    11  H    0.000018   0.000059   0.000851   0.000000   0.000022   0.000970
    12  Cu   0.016153  -0.024882   0.103429  -0.000528   0.070592  -0.027630
    13  H   -0.017047   0.014735  -0.000645   0.285599   0.005763  -0.000105
    14  H    0.003442  -0.018024   0.364012  -0.000118   0.000299  -0.028473
    15  H   -0.011277   0.375875  -0.014746   0.004151   0.001052   0.004960
    16  H   -0.052366   0.433976  -0.033819   0.004137   0.001182  -0.007253
    17  H   -0.000429  -0.004769  -0.028767  -0.000023   0.000075   0.404778
    18  H   -0.003928   0.007452  -0.028773   0.000023  -0.000344   0.409553
    19  C    0.001957  -0.004329  -0.000341   0.000016   0.001477  -0.000465
    20  O    0.003400  -0.017440  -0.030090  -0.000039  -0.013124   0.000349
    21  O    0.000056  -0.000250  -0.000124  -0.000000  -0.000017  -0.000014
    22  C   -0.001973   0.000252   0.000339   0.000003  -0.000855   0.000298
    23  N    0.000972  -0.000568  -0.003550  -0.000005  -0.002378   0.000059
    24  C    0.000146   0.000129   0.000636   0.000000  -0.000035  -0.000764
    25  P   -0.000074  -0.000134   0.000472   0.000000   0.000006   0.000120
    26  O    0.000000  -0.000004  -0.000014   0.000000  -0.000000   0.000001
    27  O   -0.000124   0.000220  -0.005934   0.000000   0.000029   0.000765
    28  O    0.000000   0.000000  -0.000001   0.000000  -0.000000  -0.000003
    29  H    0.000025   0.000003  -0.000007  -0.000000   0.000005  -0.000002
    30  H    0.000010   0.000078   0.000010  -0.000007   0.000135   0.000008
    31  H   -0.000193  -0.000004   0.000205  -0.000001  -0.000398  -0.000024
    32  H   -0.000002   0.000002   0.000005  -0.000000  -0.000005   0.000001
    33  H   -0.000010   0.000003  -0.000005   0.000000  -0.000009   0.000175
    34  H    0.000000   0.000006  -0.000175  -0.000000   0.000000   0.003545
    35  H    0.000000  -0.000000   0.000001  -0.000000   0.000000  -0.000001
    36  H    0.000002  -0.000009   0.000024   0.000000   0.000001  -0.000002
               7          8          9         10         11         12
     1  C    0.002865  -0.000035   0.005599  -0.000004   0.000018   0.016153
     2  C    0.001184   0.000421  -0.004286  -0.000059   0.000059  -0.024882
     3  N   -0.054095   0.001751  -0.033142   0.001699   0.000851   0.103429
     4  O    0.000003  -0.000000  -0.000004   0.000000   0.000000  -0.000528
     5  O    0.000207  -0.000004  -0.007757  -0.000016   0.000022   0.070592
     6  C    0.340831  -0.020940  -0.021903  -0.031122   0.000970  -0.027630
     7  P   12.739624   0.355829   0.443168   0.407894  -0.007300  -0.011663
     8  O    0.355829   7.945734  -0.026928  -0.023829   0.270839   0.002937
     9  O    0.443168  -0.026928   7.957568  -0.021933   0.003355   0.163447
    10  O    0.407894  -0.023829  -0.021933   7.838427   0.000850   0.002223
    11  H   -0.007300   0.270839   0.003355   0.000850   0.274105  -0.001506
    12  Cu  -0.011663   0.002937   0.163447   0.002223  -0.001506  28.294230
    13  H    0.000002  -0.000000   0.000013   0.000000  -0.000000   0.000697
    14  H   -0.001137   0.001106   0.001061   0.000021   0.000288  -0.015072
    15  H   -0.000212   0.000003  -0.000001  -0.000000  -0.000003  -0.005150
    16  H   -0.000037   0.000005   0.000020  -0.000003   0.000001  -0.001504
    17  H   -0.018897  -0.000859   0.001368   0.001924  -0.000122   0.002965
    18  H   -0.027796   0.001349  -0.002727   0.002396  -0.000005  -0.007901
    19  C    0.000443   0.000011   0.002469   0.000000   0.000007   0.000160
[...]
 7,-0.00020571,0.00005206,0.00035828,0.00013551,-0.00014207,0.00028100,
 -0.00017807,-0.00039348,0.00016865,-0.00048717,0.00064812,0.00008862,-
 0.00042531,0.00047656,0.00161960,-0.12149838,-0.00016736,0.39593518,0.
 00024637,0.00014278,0.00022322,-0.00003604,0.00002491,-0.00001857,0.00
 009352,0.00011583,0.00002975,-0.00017857,-0.00015578,-0.00003801,-0.00
 036024,-0.00006392,-0.00015058,0.00003383,-0.00000421,-0.00013914,-0.0
 0023390,-0.00069108,0.00064420,0.00053793,-0.00002949,-0.00031779,0.00
 003114,0.00068896,-0.00019274,0.00000160,0.00019614,-0.00004825,-0.000
 50623,0.00045036,0.00011943,0.00052982,-0.00135174,0.00171151,0.000033
 46,0.00003122,-0.00002252,-0.00012512,-0.00001332,-0.00000085,0.000007
 73,0.00000640,0.00001199,-0.00001011,-0.00001340,-0.00001175,-0.000037
 79,0.00001751,0.00000445,0.00001693,0.00001029,0.00001041,-0.00095873,
 0.00023353,-0.00018345,0.00074663,-0.00062879,-0.00015147,0.00060436,0
 .00002920,-0.00026821,0.00060671,0.00255373,0.00116950,-0.02840809,-0.
 00237578,-0.01085813,-0.20878502,0.06850262,-0.10112512,0.00483811,-0.
 00077759,-0.00064429,-0.00038254,0.00046598,0.00012116,0.00189532,-0.0
 0110138,0.00367580,-0.00020504,0.00000322,0.00011625,0.00062648,-0.000
 73784,-0.00033284,0.00023673,0.00005453,0.00013877,0.00003700,0.000204
 66,-0.00053202,0.23523413,0.00013539,0.00007419,0.00016070,-0.00003273
 ,0.00001869,0.00000183,-0.00000459,0.00019631,-0.00009794,-0.00009818,
 -0.00009445,-0.00003557,-0.00024286,-0.00002997,-0.00009990,0.00008313
 ,-0.00011914,-0.00004728,-0.00061549,-0.00002500,0.00003278,0.00042610
 ,-0.00008748,-0.00009206,0.00060771,0.00057665,0.00024561,0.00008887,-
 0.00000828,-0.00004636,-0.00036064,0.00034980,-0.00010922,-0.00017804,
 -0.00161052,0.00104061,0.00001434,0.00001818,-0.00000886,-0.00011896,-
 0.00000420,-0.00001708,-0.00000059,0.00000834,0.00000181,-0.00000540,-
 0.00001937,-0.00001517,-0.00001041,0.00005560,0.00002934,0.00000096,0.
 00000971,0.00000807,-0.00070059,-0.00002192,-0.00057869,0.00083135,-0.
 00055532,-0.00018229,0.00039980,0.00001286,-0.00003827,-0.00339896,0.0
 0348110,-0.00007672,-0.02571107,0.00056718,-0.01221984,0.07229972,-0.0
 7509520,0.04522972,0.00625004,-0.00157851,-0.00226559,-0.00052376,0.00
 018372,0.00011888,0.00005693,0.00055250,0.00205368,-0.00114784,-0.0005
 3529,-0.00027909,0.00096721,0.00002345,0.00019700,-0.00005246,0.000212
 45,0.00011345,0.00075381,0.00061917,-0.00047152,-0.06806970,0.07972987
 ,-0.00005317,-0.00000640,-0.00008402,0.00001611,0.00003966,0.00001866,
 -0.00005711,-0.00008354,0.00001151,0.00002475,0.00001255,0.00002204,0.
 00007091,-0.00001629,0.00005438,-0.00001813,-0.00006104,0.00010497,0.0
 0045145,0.00042938,-0.00074602,-0.00073372,0.00025502,0.00041941,0.000
 18190,-0.00028097,0.00033285,-0.00008136,-0.00003815,0.00010643,0.0007
 6499,-0.00089187,-0.00027188,0.00013698,0.00074417,-0.00054420,-0.0000
 1023,-0.00000018,0.00000456,0.00012535,0.00004409,0.00002830,-0.000008
 48,0.00000091,-0.00000723,-0.00000186,-0.00000610,0.00000282,0.0000338
 1,0.00000616,0.00000974,-0.00001810,-0.00001274,-0.00000845,-0.0005554
 7,0.00036923,-0.00044382,0.00038994,-0.00025914,0.00040371,0.00034219,
 0.00002427,0.00007896,-0.00030921,0.00007536,-0.00014117,0.00520636,-0
 .00141529,0.00460300,-0.11013894,0.04506077,-0.11105662,-0.02311711,0.
 00858355,-0.00972274,0.00212281,-0.00079708,0.00227619,-0.00141170,0.0
 0209794,-0.00733009,0.00204755,-0.00096499,0.00113970,-0.00016162,-0.0
 0064079,-0.00013833,0.00027459,-0.00005565,-0.00001868,0.00058545,-0.0
 0055504,0.00060493,0.11243051,-0.04699946,0.11317548,-0.00008445,-0.00
 007654,-0.00003562,-0.00004116,-0.00003107,0.00000343,0.00001620,0.000
 03798,0.00003395,0.00006625,0.00005786,-0.00000326,0.00004274,0.000095
 29,0.00004443,0.00009843,-0.00015461,0.00014312,-0.00061497,0.00093310
 ,-0.00106413,-0.00013617,-0.00014307,0.00039118,-0.00127803,0.00031812
 ,0.00059549,0.00013543,-0.00024716,0.00006667,0.00023522,-0.00011324,-
 0.00016445,0.00048406,-0.00102303,-0.00035746,-0.00000405,-0.00002163,
 0.00000700,0.00001597,-0.00001100,-0.00000405,0.00001398,0.00000534,0.
 00000252,0.00000185,-0.00000054,-0.00000287,0.00003511,0.00007071,0.00
 004298,-0.00002212,0.00000016,-0.00000172,0.00033460,-0.00006992,0.001
 15898,-0.00030127,0.00017128,-0.00021609,0.00025309,0.00016398,-0.0005
 3449,-0.00412616,-0.00182851,0.00108022,0.00514465,-0.02767450,-0.0131
 3841,-0.07315083,0.07909852,0.03852970,-0.00216577,0.00686354,0.000060
 09,-0.00009715,-0.00007900,0.00231261,-0.00005321,-0.00038245,-0.00038
 354,-0.00044934,-0.00095929,-0.00046836,0.00028115,-0.00005683,0.00013
 265,0.00041809,-0.00118868,-0.00043494,0.00149797,0.00041142,-0.000174
 61,-0.00596857,0.01846263,0.01154631,0.07977569,0.00002375,-0.00000717
 ,0.00001549,-0.00000842,-0.00001361,-0.00000342,-0.00001524,0.00003140
 ,-0.00002669,-0.00000606,0.00000200,-0.00000258,-0.00002244,0.00002227
 ,-0.00000353,0.00001688,-0.00005740,0.00004704,0.00005672,0.00036119,-
 0.00003019,0.00007181,-0.00026556,-0.00017488,0.00088136,-0.00032452,0
 .00019308,0.00001941,-0.00013491,-0.00006093,-0.00033708,0.00044162,0.
 00009588,0.00001935,-0.00049496,0.00001976,0.00000756,-0.00000411,-0.0
 0000250,-0.00003407,-0.00001372,-0.00000482,0.00000711,-0.00000089,0.0
 0000697,-0.00000053,0.00000045,0.00000002,0.00000999,0.00002239,0.0000
 1731,-0.00000826,-0.00000584,-0.00000357,-0.00000065,-0.00012347,0.001
 30341,-0.00019985,0.00017845,-0.00032866,0.00040323,0.00015317,-0.0006
 3295,-0.00370421,-0.00112806,0.00134356,0.00370590,-0.02191771,-0.0097
 6470,0.06958873,-0.23638241,-0.09044242,0.00043875,0.00467229,-0.00211
 153,-0.00174553,0.00105565,0.00295761,0.00057985,-0.00070316,0.0004753
 6,-0.00054089,-0.00061228,0.00012379,-0.00023198,0.00029539,0.00005546
 ,0.00009871,-0.00092109,-0.00066233,0.00059105,0.00022063,-0.00009074,
 0.00268272,-0.00681618,-0.00465819,-0.07225744,0.26293204,-0.00008127,
 -0.00008080,0.00002413,-0.00004331,-0.00006593,0.00000021,0.00007259,0
 .00004640,0.00003243,0.00006627,0.00005944,-0.00002181,0.00006336,0.00
 007382,-0.00002160,0.00007392,-0.00006158,0.00006535,-0.00100199,0.000
 53013,-0.00041553,0.00020134,0.00007323,0.00024050,0.00045331,0.000126
 84,0.00021297,0.00016293,-0.00022331,-0.00005382,0.00000827,-0.0001466
 5,-0.00051756,-0.00026949,-0.00096254,-0.00027878,-0.00000829,-0.00001
 499,0.00001318,-0.00001150,-0.00001994,-0.00002360,0.00000751,0.000005
 88,-0.00000257,0.00001124,0.00000897,-0.00000217,0.00001631,0.00003103
 ,0.00002556,-0.00000702,0.00000861,0.00000742,0.00103593,0.00015759,-0
 .00035778,-0.00040108,0.00026075,0.00003427,-0.00074546,-0.00019601,0.
 00045050,0.00072675,0.00117313,0.00083489,-0.00105730,0.00555979,0.001
 77288,0.03630393,-0.10447481,-0.09304304,0.00851177,-0.02453135,-0.009
 32578,0.00287710,-0.00037192,-0.00593307,-0.00121552,0.00336971,0.0016
 8550,-0.00202472,0.00124561,0.00158842,0.00013687,-0.00011167,-0.00015
 976,0.00011944,0.00022192,0.00018773,-0.00046741,0.00042830,0.00063923
 ,-0.00508280,0.01451774,0.00736015,-0.03903182,0.10244127,0.09444216,0
 .00004284,-0.00001536,0.00007686,-0.00010296,0.00006610,0.00010102,0.0
 0023298,0.00065033,-0.00009946,-0.00002772,0.00000196,-0.00001474,-0.0
 0005925,0.00001206,-0.00005108,-0.00063505,0.00067370,0.00115679,0.005
 35594,0.02392735,0.00524592,-0.00182255,-0.00232597,0.00001307,-0.0031
 7687,0.00229438,-0.00031830,-0.13620544,-0.23064424,-0.04220658,-0.000
 69001,0.00048341,0.00004949,0.00013353,-0.00008339,-0.00010220,0.00001
 312,-0.00001328,-0.00000210,0.00008183,-0.00000319,0.00000589,0.000033
 49,0.00004145,-0.00000392,-0.00000183,-0.00001858,-0.00000325,0.000102
 86,0.00017480,0.00002592,0.00001299,0.00000580,-0.00008565,0.00024435,
 -0.00004833,0.00002899,-0.00017183,0.00008026,-0.00001694,-0.00014762,
 -0.00002936,0.00004082,-0.00003943,0.00000528,-0.00000946,-0.00010536,
 -0.00002054,-0.00002101,0.00006788,0.00009303,0.00000389,-0.00009827,0
 .00056083,-0.00005367,0.00007931,-0.00026923,-0.00006165,0.00018148,-0
 .00053033,0.00010332,-0.00001817,-0.00021091,-0.00000108,-0.00000823,0
 .00001487,-0.00000668,-0.00000164,-0.00001010,-0.00000125,0.00001407,-
 0.00000370,0.00000613,-0.00002575,-0.00002319,0.00001189,0.00000317,0.
 00005045,-0.00002503,0.13671210,-0.00046217,-0.00036256,-0.00013317,-0
 .00012633,-0.00011200,-0.00005330,0.00027482,0.00033374,0.00017644,0.0
 0034917,0.00027463,-0.00004235,0.00027979,0.00027867,0.00014028,0.0014
 3139,0.00089313,-0.00006035,-0.00691454,-0.02967555,-0.00891333,-0.004
 66435,0.00331914,0.00381551,-0.00035715,0.00363629,0.00016254,-0.19540
 612,-0.38536922,-0.07689069,0.00144188,-0.00119345,0.00045523,0.000402
 93,-0.00139468,-0.00029625,-0.00006664,-0.00006914,0.00004092,-0.00007
 631,-0.00010352,-0.00009843,-0.00000549,0.00002451,-0.00000943,0.00002
 904,0.00000276,-0.00002056,-0.00029817,-0.00015192,-0.00022169,-0.0000
 5301,0.00011915,0.00021360,0.00070385,-0.00024770,0.00004808,-0.000422
 96,0.00039972,-0.00005951,-0.00036512,0.00014687,0.00016949,0.00000782
 ,-0.00014429,-0.00005630,-0.00023478,0.00009990,-0.00009239,-0.0000471
 1,0.00004082,-0.00006790,0.00140567,0.00001170,0.00029487,-0.00040644,
 0.00014414,0.00004414,-0.00115613,0.00085136,-0.00018427,-0.00048718,-
 0.00029784,-0.00002932,-0.00002830,0.00001816,0.00000841,0.00001082,-0
 .00000474,0.00000740,0.00002524,-0.00005602,0.00006811,-0.00002507,0.0
 0003239,-0.00001607,0.00008982,0.00000862,0.00006696,0.20494332,0.4084
 9482,-0.00005650,-0.00003592,-0.00006963,0.00026845,-0.00027901,-0.000
 23651,-0.00111760,-0.00107607,-0.00042072,0.00004176,0.00002916,0.0000
 0455,0.00007897,0.00005053,0.00001558,0.00345909,-0.00285544,0.0002231
 4,-0.00336175,-0.01576126,-0.00360423,-0.00246809,0.00371997,0.0003017
 9,-0.00233706,0.00293983,-0.00086610,-0.03082888,-0.06829696,-0.014875
 30,0.00124711,-0.00090359,0.00018095,-0.00033774,-0.00039758,-0.000155
 28,-0.00001519,-0.00000457,0.00002119,-0.00003989,-0.00009112,0.000001
 02,-0.00010227,-0.00010244,0.00002052,-0.00000238,0.00000054,0.0000004
 8,-0.00003737,0.00024894,0.00000707,-0.00004594,0.00020973,0.00019196,
 0.00005351,-0.00003132,0.00009339,0.00000557,0.00008622,-0.00004814,0.
 00000350,0.00004132,-0.00004004,-0.00001396,-0.00002398,-0.00002149,-0
 .00005990,0.00004337,-0.00005312,-0.00006262,0.00002961,-0.00008269,0.
 00077161,-0.00023192,0.00065801,-0.00020413,0.00017189,-0.00008267,-0.
 00088374,0.00092233,-0.00037579,-0.00017599,-0.00002785,-0.00013489,-0
 .00000672,0.00000430,0.00000719,0.00000430,-0.00000039,0.00000241,-0.0
 0000882,0.00003152,0.00004412,0.00000339,0.00002482,-0.00002706,0.0000
 0310,0.00004781,0.00005737,0.03618231,0.08161418,0.01924431,-0.0003046
 8,-0.00019756,-0.00007259,-0.00006218,-0.00011117,-0.00000724,0.000176
 34,0.00002476,0.00006253,0.00021124,0.00017086,-0.00002402,0.00024092,
 0.00010338,0.00006040,0.00006724,0.00004996,0.00000940,-0.00096073,0.0
 0024577,0.00022841,0.00075050,-0.00021935,-0.00021920,0.00036749,-0.00
 016784,-0.00005081,0.00025770,-0.00027427,-0.00012507,-0.00071881,0.00
 043898,0.00002672,-0.00062723,-0.00014415,0.00004435,-0.00004635,-0.00
 003764,0.00002636,-0.00008211,-0.00001340,-0.00006445,-0.00002153,0.00
 000162,-0.00001873,0.00002488,0.00001138,-0.00000369,-0.00000234,-0.00
 000351,0.00000383,0.00000533,0.00001939,0.00000844,-0.00041125,0.00009
 482,0.00014512,0.00023013,0.00004442,0.00002622,0.00055522,0.00050579,
 -0.00014285,0.00014622,-0.00019710,-0.00005174,0.00046419,0.00050855,-
 0.00063981,0.00136475,0.00028470,-0.00038318,-0.02124376,-0.00718737,0
 .01027840,0.00072488,0.00679551,0.00145651,0.00167612,-0.00042800,-0.0
 0116332,-0.36493750,-0.00944202,0.22835788,0.00000837,-0.00003081,0.00
 004917,0.00002428,0.00001294,-0.00000450,0.00012261,0.00014243,-0.0000
 1306,0.00002948,-0.00000999,0.00032086,0.00001457,0.00023450,-0.000013
 64,-0.00004175,0.00011791,0.00005094,0.38276487,-0.00012747,-0.0000560
 8,-0.00002280,-0.00001614,-0.00003071,-0.00000869,0.00008978,-0.000041
 34,0.00004855,0.00008022,0.00005172,-0.00000984,0.00010710,0.00001412,
 0.00001244,-0.00001546,0.00003807,0.00003999,-0.00025451,0.00045435,-0
 .00013298,0.00016907,-0.00037923,0.00005739,0.00017681,-0.00026522,0.0
 0004143,0.00007751,-0.00021920,-0.00003670,-0.00028987,0.00057233,-0.0
 0019749,-0.00019774,0.00020730,0.00023200,-0.00002433,-0.00000537,0.00
 001247,-0.00005315,0.00002767,-0.00003460,-0.00002453,0.00000083,-0.00
 001279,0.00001207,0.00000352,-0.00000154,0.00001444,-0.00000499,0.0000
 0390,-0.00000180,-0.00000427,-0.00000265,-0.00133442,0.00063868,0.0006
 7252,0.00074200,-0.00039131,-0.00003336,0.00137215,0.00055014,-0.00069
 528,-0.00009622,0.00035056,0.00006555,-0.00052511,-0.00020085,0.001669
 55,-0.00256983,-0.00387795,-0.00181829,-0.03024306,-0.00789532,0.01405
 890,0.00406768,0.00340811,0.00027031,0.00117040,-0.00022607,-0.0001928
 1,0.01895593,-0.01269430,-0.02206371,0.00002639,-0.00007470,0.00006596
 ,0.00005377,-0.00004610,-0.00003420,-0.00027620,-0.00038366,0.00003963
 ,0.00006966,-0.00000131,0.00024522,0.00009917,0.00027245,-0.00034145,0
 .00002517,0.00008017,-0.00000174,0.00947492,0.02188197,0.00008817,0.00
 005038,0.00005267,0.00001173,0.00005232,-0.00000659,-0.00011295,-0.000
 01536,-0.00004718,-0.00006053,-0.00004787,-0.00000117,-0.00007714,-0.0
 0002823,-0.00004214,0.00000088,-0.00002776,-0.00002081,0.00026233,-0.0
 0019410,0.00010414,-0.00021853,0.00024269,-0.00006375,-0.00013525,0.00
 009324,-0.00004768,-0.00006358,0.00008778,-0.00000491,0.00036587,-0.00
 050639,0.00019891,0.00024504,0.00008546,-0.00011152,0.00001200,0.00000
 910,-0.00000233,0.00006100,0.00000099,0.00007545,0.00000629,-0.0000000
 3,0.00001160,-0.00001535,-0.00000941,0.00000386,-0.00001318,0.00000206
 ,-0.00000035,0.00000010,0.00000219,-0.00000025,-0.00015492,0.00012322,
 0.00010578,-0.00000227,-0.00014283,-0.00002411,0.00003928,-0.00009232,
 -0.00011653,0.00006521,0.00003697,-0.00002584,-0.00016721,0.00011526,-
 0.00062526,0.00189222,0.00070219,0.00130410,-0.00632076,0.00047845,0.0
 0279639,0.00033344,-0.00281694,-0.00229607,-0.00480332,-0.00297967,-0.
 00342894,0.24648358,-0.00408469,-0.15884278,0.,0.00003131,0.00001214,-
 0.00001995,0.00001565,0.00001224,0.00012342,0.00012192,-0.00001068,-0.
 00021248,0.00004082,-0.00002948,-0.00005762,-0.00000447,0.00018843,0.0
 0001046,-0.00003576,0.00001907,-0.23757467,0.00860703,0.16110034,-0.00
 073900,-0.00026480,-0.00011838,-0.00008159,-0.00004255,-0.00003823,0.0
 0035304,-0.00035145,0.00027660,0.00038332,0.00025910,-0.00004072,0.000
 54858,-0.00001085,0.00004615,-0.00014264,0.00019883,0.00018871,0.00065
 969,0.00148706,-0.00081758,-0.00093077,-0.00009861,0.00041993,0.000001
 98,-0.00141418,0.00006586,-0.00000485,-0.00052528,0.00001034,0.0006683
 9,-0.00047648,-0.00003559,-0.00067026,0.00299876,0.00150939,-0.0001202
 1,-0.00003994,0.00007016,-0.00002622,0.00024716,-0.00012469,-0.0001774
 3,0.00000629,-0.00012281,0.00005609,-0.00002696,-0.00001288,0.00006584
 ,-0.00008260,-0.00000854,-0.00001522,-0.00004066,-0.00002574,-0.022327
 94,0.00504979,0.01229892,0.00862135,-0.00475944,-0.00040986,0.00920891
 ,0.00304184,-0.01060052,0.00080258,0.00091346,0.00063648,-0.00104189,-
 0.00075676,-0.00017582,-0.00079434,0.00250546,0.00095056,0.01510021,0.
 01382632,0.00369638,-0.10358307,-0.15185023,-0.04983846,-0.00636987,-0
 .00044959,-0.00073304,-0.00026479,0.00599846,0.00344129,0.00008791,-0.
 00002635,-0.00031674,-0.00002173,-0.00039476,-0.00050894,-0.00011485,-
 0.00045786,-0.00002758,-0.00016554,-0.00007254,-0.00040849,-0.00037494
 ,-0.00037519,0.00063882,0.00006779,0.00008989,-0.00000708,-0.00076710,
 -0.00073439,0.00000869,0.10210853,-0.00064024,-0.00007224,-0.00017816,
 -0.00000789,0.00012135,-0.00000899,0.00030157,-0.00059257,0.00039259,0
 .00025794,0.00010805,0.00000631,0.00047750,-0.00017661,0.00004924,-0.0
 0030931,0.00017854,0.00032475,0.00240095,0.00211932,-0.00206555,-0.003
 12707,0.00066800,0.00121396,-0.00041625,-0.00212093,0.00033390,-0.0003
 9278,-0.00042219,0.00028864,0.00275891,-0.00256710,-0.00013503,0.00053
 113,0.00452150,0.00135915,-0.00011892,0.00000796,0.00006169,0.00029636
 ,0.00033156,-0.00007564,-0.00020371,0.00002026,-0.00014670,0.00004355,
 -0.00004962,-0.00000887,0.00011694,-0.00011037,-0.00001355,-0.00004355
 ,-0.00007756,-0.00004789,-0.02602421,0.01323492,0.01536475,0.01417305,
 -0.00990827,-0.00073407,0.02024168,-0.00010356,-0.01626855,0.00047804,
 0.00268251,-0.00112623,-0.00088027,-0.00139529,-0.00050170,-0.00003298
 ,0.00449536,0.00117064,0.01576270,-0.03684358,-0.01786776,-0.14030557,
 -0.28877320,-0.09370317,-0.00970176,0.00646761,0.00083680,-0.00061174,
 0.00642699,0.00151490,0.00006846,0.00004297,0.00033434,0.00003091,-0.0
 0059800,-0.00064848,-0.00007358,-0.00065409,-0.00002698,-0.00044517,-0
 .00011998,-0.00022932,-0.00056045,-0.00074298,0.00119582,0.00014512,-0
 .00002805,-0.00009492,-0.00081843,-0.00175403,0.00008677,0.12662908,0.
 30568332,0.00015222,0.00007608,0.00022748,0.00000519,0.00006753,-0.000
 04802,-0.00009842,-0.00005117,-0.00007105,-0.00010318,-0.00008085,-0.0
 0003959,-0.00016259,-0.00004836,-0.00016910,-0.00003352,0.00001365,-0.
 00004302,0.00048978,-0.00017093,0.00021971,-0.00035922,0.00019998,-0.0
 0002666,-0.00027013,0.00018105,-0.00013560,-0.00012151,0.00009821,-0.0
 0000730,0.00038122,-0.00040034,0.00008672,0.00062367,0.00028868,0.0005
 8315,0.00001969,0.00001650,0.00000446,-0.00006684,0.00006803,0.0000983
 2,-0.00002194,-0.00000041,0.00002422,-0.00001871,-0.00001288,0.0000037
 8,-0.00001612,-0.00000426,-0.00000105,0.00000700,-0.00001331,-0.000004
 89,0.00200374,0.00260164,0.00279026,0.00154928,-0.00019438,-0.00096804
 ,0.00094524,-0.00061194,-0.00783558,0.00087833,-0.00148517,-0.00044447
 ,-0.00001402,0.00002363,-0.00116602,0.00093633,0.00115889,-0.00026051,
 0.00215934,-0.01309422,-0.00732822,-0.04552943,-0.09950527,-0.04562438
 ,-0.00280615,0.00097114,-0.00125198,0.00065626,0.00092112,0.00315851,-
 0.00030380,0.00041121,-0.00107351,-0.00034999,0.00010581,0.00022504,0.
 00007689,-0.00005929,-0.00008796,-0.00007933,-0.00013592,-0.00018799,-
 0.00008101,-0.00013472,0.00029357,0.00002128,-0.00004508,-0.00000044,-
 0.00058297,-0.00050193,-0.00023673,0.04011341,0.10934729,0.05929687\\0
 .00000744,-0.00000064,0.00000692,0.00000745,0.00000092,0.00000261,-0.0
 0002888,0.00000667,-0.00001311,-0.00000215,0.00000123,0.00000103,-0.00
 000006,0.00000651,-0.00000279,0.00000575,-0.00000764,0.00001399,0.0000
 2638,0.00002570,-0.00004323,-0.00003952,-0.00000758,0.00004309,0.00000
 704,-0.00000461,0.00002972,-0.00001573,0.00000652,-0.00001603,0.000019
 56,-0.00000928,-0.00002425,0.00000043,-0.00000736,-0.00000783,-0.00000
 249,0.00000080,0.00000035,0.00001402,-0.00001049,0.00001249,-0.0000037
 0,0.00000218,-0.00000210,-0.00000373,0.00000284,0.00000213,0.00000270,
 0.00000501,0.00000046,-0.00000008,-0.00000197,0.00000055,-0.00003008,0
 .00001530,0.00000326,0.00001004,0.00000089,-0.00000575,0.00001230,-0.0
 0001051,-0.00000835,-0.00000260,-0.00000527,-0.00000712,-0.00000261,0.
 00001954,-0.00000074,0.00000262,-0.00000120,0.00000662,0.00000498,0.00
 001814,0.00000582,-0.00001095,-0.00002784,-0.00000144,-0.00000558,-0.0
 0001164,-0.00000374,-0.00000212,-0.00000343,0.00000837,-0.00000043,-0.
 00000537,-0.00000259,0.00000378,-0.00000169,0.00000506,-0.00000062,-0.
 00000092,-0.00000012,0.00000362,-0.00000088,-0.00000356,0.00000071,-0.
 00000027,-0.00000163,0.00001166,-0.00000255,0.00001483,0.00000194,-0.0
 0000425,-0.00000736,0.00000892,0.00001316,-0.00000555\\\@
 The archive entry for this job was punched.


 AND THIS OUR LIFE, EXEMPT FROM PUBLIC HAUNT,
 FINDS TONGUES IN TREES, BOOKS IN THE RUNNING BROOKS,
 SERMONS IN STONES, AND GOOD IN EVERYTHING.
 I WOULD NOT CHANGE IT. -- W. SHAKESPEARE
 AS YOU LIKE IT, ACT II, SCENE 1.
 Job cpu time:       2 days 15 hours 12 minutes 48.7 seconds.
 Elapsed time:       0 days  1 hours 20 minutes 38.2 seconds.
 File lengths (MBytes):  RWF=   3426 Int=      0 D2E=      0 Chk=     65 Scr=      1
 Normal termination of Gaussian 16 at Sat Dec 21 19:10:43 2024.
