 Entering Gaussian System, Link 0=g16
 Initial command:
 /apps/gaussian/g16c01/g16/l1.exe "/jobfs/131145889.gadi-pbs/Gau-1003957.inp" -scrdir="/jobfs/131145889.gadi-pbs/"
 Entering Link 1 = /apps/gaussian/g16c01/g16/l1.exe PID=   1003958.
  
 Copyright (c) 1988-2019, Gaussian, Inc.  All Rights Reserved.
  
 This is part of the Gaussian(R) 16 program.  It is based on
 the Gaussian(R) 09 system (copyright 2009, Gaussian, Inc.),
 the Gaussian(R) 03 system (copyright 2003, Gaussian, Inc.),
 the Gaussian(R) 98 system (copyright 1998, Gaussian, Inc.),
 the Gaussian(R) 94 system (copyright 1995, Gaussian, Inc.),
 the Gaussian 92(TM) system (copyright 1992, Gaussian, Inc.),
 the Gaussian 90(TM) system (copyright 1990, Gaussian, Inc.),
 the Gaussian 88(TM) system (copyright 1988, Gaussian, Inc.),
 the Gaussian 86(TM) system (copyright 1986, Carnegie Mellon
 University), and the Gaussian 82(TM) system (copyright 1983,
 Carnegie Mellon University). Gaussian is a federally registered
 trademark of Gaussian, Inc.
  
 This software contains proprietary and confidential information,
 including trade secrets, belonging to Gaussian, Inc.
  
 This software is provided under written license and may be
 used, copied, transmitted, or stored only in accord with that
 written license.
  
 The following legend is applicable only to US Government
 contracts under FAR:
  
                    RESTRICTED RIGHTS LEGEND
  
 Use, reproduction and disclosure by the US Government is
 subject to restrictions as set forth in subparagraphs (a)
 and (c) of the Commercial Computer Software - Restricted
 Rights clause in FAR 52.227-19.
  
 Gaussian, Inc.
 340 Quinnipiac St., Bldg. 40, Wallingford CT 06492
  
  
 ---------------------------------------------------------------
 Warning -- This program may not be used in any manner that
 competes with the business of Gaussian, Inc. or will provide
 assistance to any competitor of Gaussian, Inc.  The licensee
 of this program is prohibited from giving any competitor of
 Gaussian, Inc. access to this program.  By using this program,
 the user acknowledges that Gaussian, Inc. is engaged in the
 business of creating and licensing software in the field of
 computational chemistry and represents and warrants to the
 licensee that it is not a competitor of Gaussian, Inc. and that
 it will not use this program in any manner prohibited above.
 ---------------------------------------------------------------
  

 Cite this work as:
 Gaussian 16, Revision C.01,
 M. J. Frisch, G. W. Trucks, H. B. Schlegel, G. E. Scuseria, 
 M. A. Robb, J. R. Cheeseman, G. Scalmani, V. Barone, 
 G. A. Petersson, H. Nakatsuji, X. Li, M. Caricato, A. V. Marenich, 
 J. Bloino, B. G. Janesko, R. Gomperts, B. Mennucci, H. P. Hratchian, 
 J. V. Ortiz, A. F. Izmaylov, J. L. Sonnenberg, D. Williams-Young, 
 F. Ding, F. Lipparini, F. Egidi, J. Goings, B. Peng, A. Petrone, 
 T. Henderson, D. Ranasinghe, V. G. Zakrzewski, J. Gao, N. Rega, 
 G. Zheng, W. Liang, M. Hada, M. Ehara, K. Toyota, R. Fukuda, 
 J. Hasegawa, M. Ishida, T. Nakajima, Y. Honda, O. Kitao, H. Nakai, 
 T. Vreven, K. Throssell, J. A. Montgomery, Jr., J. E. Peralta, 
 F. Ogliaro, M. J. Bearpark, J. J. Heyd, E. N. Brothers, K. N. Kudin, 
 V. N. Staroverov, T. A. Keith, R. Kobayashi, J. Normand, 
 K. Raghavachari, A. P. Rendell, J. C. Burant, S. S. Iyengar, 
 J. Tomasi, M. Cossi, J. M. Millam, M. Klene, C. Adamo, R. Cammi, 
 J. W. Ochterski, R. L. Martin, K. Morokuma, O. Farkas, 
 J. B. Foresman, and D. J. Fox, Gaussian, Inc., Wallingford CT, 2019.
 
 ******************************************
 Gaussian 16:  ES64L-G16RevC.01  3-Jul-2019
                19-Dec-2024 
 ******************************************
 %mem=60gb
 %nprocs=48
 Will use up to   48 processors via shared memory.
 %RWF=/scratch/gy60/or4187/rwf/c.CONF1.Cu.CONF1.rwf
 %NoSave
 %Chk=c.CONF1.Cu.CONF1.chk
 ----------------------------------------------------------------------
 #UM06/Def2TZVP OPT Freq=Noraman INT(grid=ultrafine) EmpiricalDispersio
 n=GD3 SCF=XQC Pop=NPA
 ----------------------------------------------------------------------
 1/18=20,19=15,26=4,38=1/1,3;
 2/9=110,12=2,17=6,18=5,40=1/2;
 3/5=44,7=101,11=2,25=1,30=1,71=1,74=-54,75=-5,116=2,124=31/1,2,3;
 4//1;
 5/5=2,8=3,13=1,38=5/2,8;
 6/7=2,8=2,9=2,10=2,28=1,40=-1/1,7;
 7//1,2,3,16;
 1/18=20,19=15,26=4/3(2);
 2/9=110/2;
 99//99;
 2/9=110/2;
 3/5=44,7=101,11=2,25=1,30=1,71=1,74=-54,75=-5,116=2,124=31/1,2,3;
 4/5=5,16=3,69=1/1;
 5/5=2,8=3,13=1,38=5/2,8;
 7//1,2,3,16;
 1/18=20,19=15,26=4/3(-5);
 2/9=110/2;
 6/7=2,8=2,9=2,10=2,19=2,28=1,40=-1/1,7;
 99/9=1/99;
 ------------------------
 c.CONF1.Cu.CONF1.optfreq
 ------------------------
 Symbolic Z-matrix:
 Charge =  1 Multiplicity = 2
 C                    -2.59049  -1.69734  -1.10637 
 C                    -2.90621  -0.30205  -0.64349 
 N                    -1.83786   0.58304  -0.95365 
 O                    -3.65163  -2.47268  -1.13162 
 O                    -1.47604  -2.07504  -1.39502 
 C                    -1.95528   1.89014  -0.37376 
 P                    -0.87305   1.98645   1.14416 
 O                    -1.35683   3.40356   1.69895 
 O                     0.4737    1.74442   0.88164 
 O                    -1.57643   0.95806   2.17339 
 H                    -0.93599   3.67253   2.52347 
 Cu                   -0.13669  -0.28129  -0.92672 
 H                    -3.38599  -3.36605  -1.39819 
 H                    -3.84916   0.031    -1.10384 
 H                    -3.13224  -0.37032   0.43772 
 H                    -1.54223   2.64953  -1.04912 
 H                    -2.98871   2.16576  -0.1258 
 C                     2.21397   1.21985  -1.87881 
 O                     3.14674   2.10964  -2.14063 
 O                     1.0527    1.33573  -2.179 
 C                     2.77615   0.03972  -1.13204 
 N                     1.80673  -1.05405  -1.05424 
 C                     2.06828  -1.9956    0.04378 
 P                     1.2567   -1.42776   1.55502 
 O                     1.93368  -0.10926   2.06041 
 O                    -0.20124  -1.25946   1.29495 
 O                     1.68625  -2.5498    2.56012 
 H                     2.74322   2.8697   -2.58758 
 H                     3.01719   0.38451  -0.1209 
 H                     3.7257   -0.26405  -1.58738 
 H                     1.79503  -1.56224  -1.93366 
 H                     3.1367   -2.17273   0.2136 
 H                     1.5987   -2.9549   -0.19234 
 H                     1.40718   0.68774   1.76227 
 H                     1.52392  -2.38511   3.49611 
 H                    -1.1418    0.07889   2.06643 
 

 GradGradGradGradGradGradGradGradGradGradGradGradGradGradGradGradGradGrad
 Berny optimization.
 Initialization pass.
                           ----------------------------
                           !    Initial Parameters    !
                           ! (Angstroms and Degrees)  !
 --------------------------                            --------------------------
 ! Name  Definition              Value          Derivative Info.                !
 --------------------------------------------------------------------------------
 ! R1    R(1,2)                  1.5036         estimate D2E/DX2                !
 ! R2    R(1,4)                  1.3145         estimate D2E/DX2                !
 ! R3    R(1,5)                  1.2116         estimate D2E/DX2                !
 ! R4    R(2,3)                  1.4216         estimate D2E/DX2                !
 ! R5    R(2,14)                 1.1009         estimate D2E/DX2                !
 ! R6    R(2,15)                 1.1067         estimate D2E/DX2                !
 ! R7    R(3,6)                  1.4348         estimate D2E/DX2                !
 ! R8    R(3,12)                 1.9083         estimate D2E/DX2                !
 ! R9    R(4,13)                 0.9694         estimate D2E/DX2                !
 ! R10   R(6,7)                  1.8667         estimate D2E/DX2                !
 ! R11   R(6,16)                 1.097          estimate D2E/DX2                !
 ! R12   R(6,17)                 1.0979         estimate D2E/DX2                !
 ! R13   R(7,8)                  1.5969         estimate D2E/DX2                !
 ! R14   R(7,9)                  1.3933         estimate D2E/DX2                !
 ! R15   R(7,10)                 1.6161         estimate D2E/DX2                !
 ! R16   R(8,11)                 0.964          estimate D2E/DX2                !
 ! R17   R(10,36)                0.9866         estimate D2E/DX2                !
 ! R18   R(12,22)                2.0953         estimate D2E/DX2                !
 ! R19   R(18,19)                1.3154         estimate D2E/DX2                !
 ! R20   R(18,20)                1.205          estimate D2E/DX2                !
 ! R21   R(18,21)                1.5055         estimate D2E/DX2                !
 ! R22   R(19,28)                0.9697         estimate D2E/DX2                !
 ! R23   R(21,22)                1.4636         estimate D2E/DX2                !
 ! R24   R(21,29)                1.0952         estimate D2E/DX2                !
 ! R25   R(21,30)                1.096          estimate D2E/DX2                !
 ! R26   R(22,23)                1.4699         estimate D2E/DX2                !
 ! R27   R(22,31)                1.0158         estimate D2E/DX2                !
 ! R28   R(23,24)                1.8069         estimate D2E/DX2                !
 ! R29   R(23,32)                1.0962         estimate D2E/DX2                !
 ! R30   R(23,33)                1.0939         estimate D2E/DX2                !
 ! R31   R(24,25)                1.5659         estimate D2E/DX2                !
 ! R32   R(24,26)                1.4905         estimate D2E/DX2                !
 ! R33   R(24,27)                1.5664         estimate D2E/DX2                !
 ! R34   R(25,34)                1.0006         estimate D2E/DX2                !
 ! R35   R(27,35)                0.9641         estimate D2E/DX2                !
 ! A1    A(2,1,4)              112.5675         estimate D2E/DX2                !
 ! A2    A(2,1,5)              123.7637         estimate D2E/DX2                !
 ! A3    A(4,1,5)              123.6483         estimate D2E/DX2                !
 ! A4    A(1,2,3)              110.658          estimate D2E/DX2                !
 ! A5    A(1,2,14)             109.3815         estimate D2E/DX2                !
 ! A6    A(1,2,15)             106.6427         estimate D2E/DX2                !
 ! A7    A(3,2,14)             111.3523         estimate D2E/DX2                !
 ! A8    A(3,2,15)             113.8938         estimate D2E/DX2                !
 ! A9    A(14,2,15)            104.6113         estimate D2E/DX2                !
 ! A10   A(2,3,6)              114.678          estimate D2E/DX2                !
 ! A11   A(2,3,12)             112.6349         estimate D2E/DX2                !
 ! A12   A(6,3,12)             118.6769         estimate D2E/DX2                !
 ! A13   A(1,4,13)             109.1268         estimate D2E/DX2                !
 ! A14   A(3,6,7)              109.16           estimate D2E/DX2                !
 ! A15   A(3,6,16)             110.5492         estimate D2E/DX2                !
 ! A16   A(3,6,17)             113.3915         estimate D2E/DX2                !
 ! A17   A(7,6,16)             104.2766         estimate D2E/DX2                !
 ! A18   A(7,6,17)             110.4326         estimate D2E/DX2                !
 ! A19   A(16,6,17)            108.6429         estimate D2E/DX2                !
 ! A20   A(6,7,8)               98.7808         estimate D2E/DX2                !
 ! A21   A(6,7,9)              113.467          estimate D2E/DX2                !
 ! A22   A(6,7,10)             103.457          estimate D2E/DX2                !
 ! A23   A(8,7,9)              120.827          estimate D2E/DX2                !
 ! A24   A(8,7,10)             102.2159         estimate D2E/DX2                !
 ! A25   A(9,7,10)             115.4779         estimate D2E/DX2                !
 ! A26   A(7,8,11)             114.3617         estimate D2E/DX2                !
 ! A27   A(7,10,36)            107.8355         estimate D2E/DX2                !
 ! A28   A(19,18,20)           124.6615         estimate D2E/DX2                !
 ! A29   A(19,18,21)           111.3574         estimate D2E/DX2                !
 ! A30   A(20,18,21)           123.974          estimate D2E/DX2                !
 ! A31   A(18,19,28)           109.0786         estimate D2E/DX2                !
 ! A32   A(18,21,22)           111.3978         estimate D2E/DX2                !
 ! A33   A(18,21,29)           107.0603         estimate D2E/DX2                !
 ! A34   A(18,21,30)           109.5549         estimate D2E/DX2                !
 ! A35   A(22,21,29)           109.3888         estimate D2E/DX2                !
 ! A36   A(22,21,30)           112.8793         estimate D2E/DX2                !
 ! A37   A(29,21,30)           106.2694         estimate D2E/DX2                !
 ! A38   A(12,22,21)           109.9963         estimate D2E/DX2                !
 ! A39   A(12,22,23)           110.8435         estimate D2E/DX2                !
 ! A40   A(12,22,31)           103.0925         estimate D2E/DX2                !
 ! A41   A(21,22,23)           113.6123         estimate D2E/DX2                !
 ! A42   A(21,22,31)           109.6024         estimate D2E/DX2                !
 ! A43   A(23,22,31)           109.1666         estimate D2E/DX2                !
 ! A44   A(22,23,24)           110.0934         estimate D2E/DX2                !
 ! A45   A(22,23,32)           113.1196         estimate D2E/DX2                !
 ! A46   A(22,23,33)           108.9133         estimate D2E/DX2                !
 ! A47   A(24,23,32)           111.0368         estimate D2E/DX2                !
 ! A48   A(24,23,33)           105.2673         estimate D2E/DX2                !
 ! A49   A(32,23,33)           108.0662         estimate D2E/DX2                !
 ! A50   A(23,24,25)           109.8983         estimate D2E/DX2                !
 ! A51   A(23,24,26)           109.2015         estimate D2E/DX2                !
 ! A52   A(23,24,27)           100.8585         estimate D2E/DX2                !
 ! A53   A(25,24,26)           112.5889         estimate D2E/DX2                !
 ! A54   A(25,24,27)           106.11           estimate D2E/DX2                !
 ! A55   A(26,24,27)           117.4565         estimate D2E/DX2                !
 ! A56   A(24,25,34)           110.3039         estimate D2E/DX2                !
 ! A57   A(24,27,35)           117.0258         estimate D2E/DX2                !
 ! A58   L(3,12,22,5,-1)       184.2016         estimate D2E/DX2                !
 ! A59   L(3,12,22,5,-2)       174.5573         estimate D2E/DX2                !
 ! D1    D(4,1,2,3)           -164.9312         estimate D2E/DX2                !
 ! D2    D(4,1,2,14)           -41.8974         estimate D2E/DX2                !
 ! D3    D(4,1,2,15)            70.7009         estimate D2E/DX2                !
 ! D4    D(5,1,2,3)             16.6646         estimate D2E/DX2                !
 ! D5    D(5,1,2,14)           139.6984         estimate D2E/DX2                !
 ! D6    D(5,1,2,15)          -107.7033         estimate D2E/DX2                !
 ! D7    D(2,1,4,13)          -177.5325         estimate D2E/DX2                !
 ! D8    D(5,1,4,13)             0.8738         estimate D2E/DX2                !
 ! D9    D(1,2,3,6)           -170.9724         estimate D2E/DX2                !
 ! D10   D(1,2,3,12)           -31.1751         estimate D2E/DX2                !
 ! D11   D(14,2,3,6)            67.1442         estimate D2E/DX2                !
 ! D12   D(14,2,3,12)         -153.0585         estimate D2E/DX2                !
 ! D13   D(15,2,3,6)           -50.8531         estimate D2E/DX2                !
 ! D14   D(15,2,3,12)           88.9442         estimate D2E/DX2                !
 ! D15   D(2,3,6,7)            100.2932         estimate D2E/DX2                !
 ! D16   D(2,3,6,16)          -145.5614         estimate D2E/DX2                !
 ! D17   D(2,3,6,17)           -23.2776         estimate D2E/DX2                !
 ! D18   D(12,3,6,7)           -36.9358         estimate D2E/DX2                !
 ! D19   D(12,3,6,16)           77.2096         estimate D2E/DX2                !
 ! D20   D(12,3,6,17)         -160.5066         estimate D2E/DX2                !
 ! D21   D(2,3,22,21)         -169.4275         estimate D2E/DX2                !
 ! D22   D(2,3,22,23)          -42.6603         estimate D2E/DX2                !
 ! D23   D(2,3,22,31)           75.1324         estimate D2E/DX2                !
 ! D24   D(6,3,22,21)          -28.9616         estimate D2E/DX2                !
 ! D25   D(6,3,22,23)           97.8055         estimate D2E/DX2                !
 ! D26   D(6,3,22,31)         -144.4018         estimate D2E/DX2                !
 ! D27   D(3,6,7,8)           -171.6185         estimate D2E/DX2                !
 ! D28   D(3,6,7,9)             59.1587         estimate D2E/DX2                !
 ! D29   D(3,6,7,10)           -66.7199         estimate D2E/DX2                !
 ! D30   D(16,6,7,8)            70.2269         estimate D2E/DX2                !
 ! D31   D(16,6,7,9)           -58.9958         estimate D2E/DX2                !
 ! D32   D(16,6,7,10)          175.1255         estimate D2E/DX2                !
 ! D33   D(17,6,7,8)           -46.3117         estimate D2E/DX2                !
 ! D34   D(17,6,7,9)          -175.5345         estimate D2E/DX2                !
 ! D35   D(17,6,7,10)           58.5869         estimate D2E/DX2                !
 ! D36   D(6,7,8,11)           178.6452         estimate D2E/DX2                !
 ! D37   D(9,7,8,11)           -57.201          estimate D2E/DX2                !
 ! D38   D(10,7,8,11)           72.7206         estimate D2E/DX2                !
 ! D39   D(6,7,10,36)           93.0959         estimate D2E/DX2                !
 ! D40   D(8,7,10,36)         -164.6408         estimate D2E/DX2                !
 ! D41   D(9,7,10,36)          -31.4867         estimate D2E/DX2                !
 ! D42   D(20,18,19,28)          1.4057         estimate D2E/DX2                !
 ! D43   D(21,18,19,28)       -177.6546         estimate D2E/DX2                !
 ! D44   D(19,18,21,22)       -169.6            estimate D2E/DX2                !
 ! D45   D(19,18,21,29)         70.8477         estimate D2E/DX2                !
 ! D46   D(19,18,21,30)        -43.9862         estimate D2E/DX2                !
 ! D47   D(20,18,21,22)         11.3321         estimate D2E/DX2                !
 ! D48   D(20,18,21,29)       -108.2202         estimate D2E/DX2                !
 ! D49   D(20,18,21,30)        136.9458         estimate D2E/DX2                !
 ! D50   D(18,21,22,12)        -33.4483         estimate D2E/DX2                !
 ! D51   D(18,21,22,23)       -158.3602         estimate D2E/DX2                !
 ! D52   D(18,21,22,31)         79.2253         estimate D2E/DX2                !
 ! D53   D(29,21,22,12)         84.7126         estimate D2E/DX2                !
 ! D54   D(29,21,22,23)        -40.1994         estimate D2E/DX2                !
 ! D55   D(29,21,22,31)       -162.6139         estimate D2E/DX2                !
 ! D56   D(30,21,22,12)       -157.1966         estimate D2E/DX2                !
 ! D57   D(30,21,22,23)         77.8915         estimate D2E/DX2                !
 ! D58   D(30,21,22,31)        -44.523          estimate D2E/DX2                !
 ! D59   D(12,22,23,24)        -36.4876         estimate D2E/DX2                !
 ! D60   D(12,22,23,32)       -161.3631         estimate D2E/DX2                !
 ! D61   D(12,22,23,33)         78.4563         estimate D2E/DX2                !
 ! D62   D(21,22,23,24)         87.9686         estimate D2E/DX2                !
 ! D63   D(21,22,23,32)        -36.9069         estimate D2E/DX2                !
 ! D64   D(21,22,23,33)       -157.0874         estimate D2E/DX2                !
 ! D65   D(31,22,23,24)       -149.3766         estimate D2E/DX2                !
 ! D66   D(31,22,23,32)         85.7479         estimate D2E/DX2                !
 ! D67   D(31,22,23,33)        -34.4326         estimate D2E/DX2                !
 ! D68   D(22,23,24,25)        -67.4773         estimate D2E/DX2                !
 ! D69   D(22,23,24,26)         56.4837         estimate D2E/DX2                !
 ! D70   D(22,23,24,27)       -179.1874         estimate D2E/DX2                !
 ! D71   D(32,23,24,25)         58.584          estimate D2E/DX2                !
 ! D72   D(32,23,24,26)       -177.455          estimate D2E/DX2                !
 ! D73   D(32,23,24,27)        -53.1261         estimate D2E/DX2                !
 ! D74   D(33,23,24,25)        175.2889         estimate D2E/DX2                !
 ! D75   D(33,23,24,26)        -60.7501         estimate D2E/DX2                !
 ! D76   D(33,23,24,27)         63.5788         estimate D2E/DX2                !
 ! D77   D(23,24,25,34)         97.7769         estimate D2E/DX2                !
 ! D78   D(26,24,25,34)        -24.1897         estimate D2E/DX2                !
 ! D79   D(27,24,25,34)       -153.9784         estimate D2E/DX2                !
 ! D80   D(23,24,27,35)        167.9755         estimate D2E/DX2                !
 ! D81   D(25,24,27,35)         53.3854         estimate D2E/DX2                !
 ! D82   D(26,24,27,35)        -73.5305         estimate D2E/DX2                !
 --------------------------------------------------------------------------------
 Trust Radius=3.00D-01 FncErr=1.00D-07 GrdErr=1.00D-06 EigMax=2.50D+02 EigMin=1.00D-04
 Number of steps in this run=    186 maximum allowed number of steps=    216.
 GradGradGradGradGradGradGradGradGradGradGradGradGradGradGradGradGradGrad

                          Input orientation:                          
 ---------------------------------------------------------------------
 Center     Atomic      Atomic             Coordinates (Angstroms)
 Number     Number       Type             X           Y           Z
 ---------------------------------------------------------------------
      1          6           0       -2.590489   -1.697340   -1.106370
      2          6           0       -2.906214   -0.302047   -0.643488
      3          7           0       -1.837862    0.583044   -0.953646
      4          8           0       -3.651625   -2.472681   -1.131618
      5          8           0       -1.476041   -2.075038   -1.395024
      6          6           0       -1.955280    1.890140   -0.373760
      7         15           0       -0.873052    1.986447    1.144158
      8          8           0       -1.356828    3.403563    1.698948
      9          8           0        0.473701    1.744417    0.881644
     10          8           0       -1.576432    0.958061    2.173390
     11          1           0       -0.935985    3.672525    2.523470
     12         29           0       -0.136690   -0.281288   -0.926716
     13          1           0       -3.385986   -3.366047   -1.398189
     14          1           0       -3.849159    0.031002   -1.103837
     15          1           0       -3.132236   -0.370317    0.437716
     16          1           0       -1.542227    2.649533   -1.049118
     17          1           0       -2.988713    2.165765   -0.125804
     18          6           0        2.213967    1.219852   -1.878809
     19          8           0        3.146736    2.109641   -2.140629
     20          8           0        1.052703    1.335726   -2.178995
     21          6           0        2.776148    0.039724   -1.132041
     22          7           0        1.806728   -1.054045   -1.054242
     23          6           0        2.068277   -1.995595    0.043776
     24         15           0        1.256698   -1.427760    1.555023
     25          8           0        1.933681   -0.109256    2.060412
     26          8           0       -0.201236   -1.259462    1.294954
     27          8           0        1.686250   -2.549800    2.560123
     28          1           0        2.743221    2.869701   -2.587584
     29          1           0        3.017187    0.384512   -0.120904
     30          1           0        3.725698   -0.264051   -1.587384
     31          1           0        1.795027   -1.562235   -1.933663
     32          1           0        3.136696   -2.172735    0.213598
     33          1           0        1.598703   -2.954901   -0.192338
     34          1           0        1.407179    0.687738    1.762274
     35          1           0        1.523917   -2.385113    3.496106
     36          1           0       -1.141795    0.078892    2.066426
 ---------------------------------------------------------------------
                    Distance matrix (angstroms):
                    1          2          3          4          5
     1  C    0.000000
     2  C    1.503591   0.000000
     3  N    2.406226   1.421605   0.000000
     4  O    1.314458   2.346393   3.557930   0.000000
     5  O    1.211599   2.398687   2.718663   2.227256   0.000000
     6  C    3.716211   2.404727   1.434766   4.741956   4.122534
     7  P    4.645939   3.544944   2.702070   5.725683   4.827701
     8  O    5.950709   4.649640   3.901663   6.914365   6.293007
     9  O    5.018680   4.235312   3.171813   6.233414   4.855198
    10  O    4.340080   3.360207   3.160275   5.196104   4.684373
    11  H    6.689437   5.450564   4.737996   7.648394   6.977158
    12  Cu   2.838769   2.784046   1.908345   4.147162   2.287075
    13  H    1.871512   3.191841   4.264930   0.969395   2.305343
    14  H    2.138089   1.100903   2.091082   2.511617   3.186202
    15  H    2.106818   1.106684   2.126074   2.674417   3.001332
    16  H    4.471849   3.276709   2.089711   5.540166   4.737679
    17  H    4.005455   2.522875   2.124803   4.792316   4.677981
    18  C    5.673576   5.482559   4.204613   6.971246   4.970564
    19  O    6.962654   6.685497   5.346554   8.260357   6.279931
    20  O    4.860336   4.551165   3.228525   6.142611   4.317692
    21  C    5.640819   5.713557   4.649313   6.901336   4.756311
    22  N    4.444329   4.790203   3.996651   5.640225   3.454726
    23  C    4.807899   5.299622   4.785619   5.858877   3.826048
    24  P    4.685780   4.840508   4.462405   5.692235   4.073034
    25  O    5.746184   5.547326   4.877331   6.853501   5.237417
    26  O    3.415644   3.462818   3.336102   4.389230   3.086466
    27  O    5.697399   6.033759   5.880531   6.490594   5.086125
    28  H    7.176372   6.764289   5.374465   8.459015   6.608692
    29  H    6.062283   5.985912   4.929947   7.325172   5.278434
    30  H    6.494606   6.698854   5.663249   7.714316   5.511331
    31  H    4.464910   5.035305   4.331344   5.580162   3.354547
    32  H    5.896521   6.383638   5.805429   6.926823   4.886159
    33  H    4.468360   5.247423   4.990654   5.355439   3.416821
    34  H    5.468004   5.037135   4.232904   6.629808   5.090621
    35  H    6.211614   6.411042   6.317579   6.943323   5.746220
    36  H    3.914122   3.256059   3.139986   4.799714   4.090571
                    6          7          8          9         10
     6  C    0.000000
     7  P    1.866700   0.000000
     8  O    2.635282   1.596887   0.000000
     9  O    2.738106   1.393282   2.602227   0.000000
    10  O    2.738662   1.616057   2.500760   2.547550   0.000000
    11  H    3.551028   2.179294   0.963995   2.898346   2.810879
    12  Cu   2.885850   3.158064   4.686254   2.783204   3.635863
    13  H    5.542912   6.436424   7.716046   6.797916   5.893095
    14  H    2.752487   4.211230   5.043955   5.056189   4.094502
    15  H    2.674581   3.340256   4.357172   4.203802   2.682849
    16  H    1.096995   2.387035   2.855661   2.934458   3.639616
    17  H    1.097923   2.474061   2.743157   3.630537   2.956244
    18  C    4.482977   4.388130   5.506316   3.305116   5.554816
    19  O    5.403756   5.192658   6.057943   4.051252   6.499632
    20  O    3.551649   3.895551   5.012009   3.141621   5.098847
    21  C    5.136676   4.720961   6.034186   3.501738   5.542037
    22  N    4.825348   4.610724   6.120328   3.654587   5.090378
    23  C    5.609125   5.071382   6.604684   4.151191   5.152014
    24  P    5.004545   4.044929   5.494808   3.336050   3.755149
    25  O    5.004677   3.620669   4.826800   2.637639   3.670534
    26  O    3.972565   3.318132   4.821038   3.106389   2.753220
    27  O    6.448370   5.397455   6.741252   4.767375   4.806219
    28  H    5.285496   5.271002   5.955650   4.295641   6.706761
    29  H    5.201565   4.393238   5.617699   3.053484   5.166631
    30  H    6.195719   5.802979   7.076966   4.550333   6.614345
    31  H    5.330759   5.402293   6.912973   4.539362   5.881030
    32  H    6.540655   5.851736   7.313899   4.783504   5.988008
    33  H    6.011500   5.684427   7.262382   4.950016   5.566814
    34  H    4.161075   2.695954   3.875494   1.662366   3.023909
    35  H    6.734869   5.512500   6.710979   4.999138   4.747479
    36  H    3.145931   2.135783   3.351823   2.605285   0.986554
                   11         12         13         14         15
    11  H    0.000000
    12  Cu   5.308040   0.000000
    13  H    8.421604   4.505103   0.000000
    14  H    5.908014   3.729789   3.441092   0.000000
    15  H    5.051580   3.292855   3.522689   1.746832   0.000000
    16  H    3.765292   3.252726   6.301468   3.490220   3.722673
    17  H    3.674598   3.842338   5.690144   2.500826   2.601897
    18  C    5.942883   2.947116   7.254029   6.226993   6.039604
    19  O    6.392577   4.239223   8.556333   7.371447   7.226586
    20  O    5.615041   2.365923   6.512932   5.185221   5.222210
    21  C    6.351373   2.937658   7.045708   6.625373   6.127093
    22  N    6.531689   2.095302   5.694553   5.759240   5.204497
    23  C    6.877649   2.956786   5.805720   6.359258   5.462788
    24  P    5.635482   3.068380   5.833775   5.938628   4.650731
    25  O    4.769829   3.638539   7.132143   6.593435   5.325862
    26  O    5.135524   2.428334   4.672617   4.552674   3.180597
    27  O    6.752391   4.541729   6.485528   7.122211   5.698470
    28  H    6.348540   4.580513   8.824194   7.329338   7.360105
    29  H    5.781982   3.322584   7.529859   6.945346   6.220709
    30  H    7.357108   3.918523   7.761071   7.596008   7.151474
    31  H    7.397782   2.527113   5.512111   5.923162   5.596609
    32  H    7.489279   3.948790   6.824019   7.442732   6.526749
    33  H    7.597567   3.270949   5.144924   6.278985   5.427599
    34  H    3.870244   3.248570   7.028238   6.022872   4.845640
    35  H    6.610001   5.171562   7.001679   7.474425   5.923927
    36  H    3.628422   3.177871   5.376575   4.169254   2.610812
                   16         17         18         19         20
    16  H    0.000000
    17  H    1.782936   0.000000
    18  C    4.103824   5.570966   0.000000
    19  O    4.844508   6.458050   1.315421   0.000000
    20  O    3.120316   4.608427   1.205020   2.232799   0.000000
    21  C    5.046419   6.226250   1.505461   2.332197   2.397081
    22  N    4.993197   5.850250   2.452827   3.603438   2.746749
    23  C    5.983926   6.551246   3.749221   4.773642   4.131562
    24  P    5.589262   5.810518   4.440430   5.453741   4.649877
    25  O    5.418674   5.846813   4.166839   4.903443   4.564720
    26  O    4.751123   4.639047   4.696060   5.861996   4.513943
    27  O    7.105121   7.162823   5.847468   6.777941   6.161001
    28  H    4.558554   6.277814   1.872024   0.969683   2.319025
    29  H    5.174955   6.264481   2.105513   2.659350   2.999957
    30  H    6.043983   7.288590   2.138277   2.505133   3.170835
    31  H    5.445978   6.328547   2.813988   3.918243   3.001568
    32  H    6.836742   7.513881   4.091362   4.886843   4.730415
    33  H    6.481450   6.875321   4.544370   5.642857   4.759664
    34  H    4.522340   5.007322   3.767166   4.503390   4.009881
    35  H    7.443652   7.361559   6.508583   7.389799   6.802460
    36  H    4.058960   3.545704   5.303566   6.341510   4.941564
                   21         22         23         24         25
    21  C    0.000000
    22  N    1.463611   0.000000
    23  C    2.454822   1.469887   0.000000
    24  P    3.417975   2.692668   1.806921   0.000000
    25  O    3.305102   3.257271   2.764636   1.565943   0.000000
    26  O    4.054997   3.097231   2.694073   1.490480   2.542985
    27  O    4.639568   3.913494   2.604821   1.566434   2.503435
    28  H    3.182524   4.315546   5.572316   6.151351   5.579732
    29  H    1.095161   2.098994   2.567578   3.031894   2.485142
    30  H    1.096021   2.142610   2.899305   4.162319   4.067149
    31  H    2.042417   1.015763   2.042726   3.532536   4.252412
    32  H    2.614520   2.151209   1.096238   2.426685   3.019257
    33  H    3.352193   2.097476   1.093854   2.345719   3.644830
    34  H    3.266658   3.335597   3.254314   2.130946   1.000645
    35  H    5.372863   4.749462   3.516623   2.180765   2.721883
    36  H    5.057865   4.440259   4.324254   2.878246   3.081232
                   26         27         28         29         30
    26  O    0.000000
    27  O    2.613088   0.000000
    28  H    6.387011   7.548978   0.000000
    29  H    3.881437   4.191597   3.512226   0.000000
    30  H    4.971873   5.156143   3.433084   1.753050   0.000000
    31  H    3.807979   4.602307   4.579164   2.927387   2.352165
    32  H    3.625629   2.784269   5.781661   2.581799   2.689523
    33  H    2.885538   2.783489   6.401024   3.628895   3.702828
    34  H    2.568458   3.346057   5.046507   2.496083   4.183496
    35  H    3.014683   0.964126   8.130871   4.794105   5.931999
    36  H    1.808594   3.892505   6.673962   4.709028   6.095935
                   31         32         33         34         35
    31  H    0.000000
    32  H    2.604518   0.000000
    33  H    2.238364   1.772566   0.000000
    34  H    4.344278   3.684010   4.138358   0.000000
    35  H    5.498456   3.663471   3.732944   3.530186   0.000000
    36  H    5.226752   5.177671   4.670786   2.638270   3.901452
                   36
    36  H    0.000000
 Stoichiometry    C6H15CuN2O10P2(1+,2)
 Framework group  C1[X(C6H15CuN2O10P2)]
 Deg. of freedom   102
 Full point group                 C1      NOp   1
 Largest Abelian subgroup         C1      NOp   1
 Largest concise Abelian subgroup C1      NOp   1
                         Standard orientation:                         
 ---------------------------------------------------------------------
 Center     Atomic      Atomic             Coordinates (Angstroms)
 Number     Number       Type             X           Y           Z
 ---------------------------------------------------------------------
      1          6           0       -2.641505   -1.640098   -1.088370
      2          6           0       -2.923553   -0.238422   -0.623035
      3          7           0       -1.838414    0.623332   -0.940545
      4          8           0       -3.719401   -2.392175   -1.106289
      5          8           0       -1.537589   -2.041844   -1.384920
      6          6           0       -1.923303    1.932482   -0.359620
      7         15           0       -0.828595    2.004739    1.150666
      8          8           0       -1.277531    3.431857    1.709091
      9          8           0        0.510698    1.733569    0.878644
     10          8           0       -1.546921    0.991553    2.184640
     11          1           0       -0.845155    3.691335    2.530680
     12         29           0       -0.156292   -0.277794   -0.925731
     13          1           0       -3.475131   -3.291018   -1.374877
     14          1           0       -3.862245    0.115202   -1.076683
     15          1           0       -3.143402   -0.302115    0.459720
     16          1           0       -1.498591    2.682935   -1.037734
     17          1           0       -2.948730    2.230431   -0.104354
     18          6           0        2.219703    1.172192   -1.894072
     19          8           0        3.169737    2.041574   -2.162291
     20          8           0        1.059152    1.313386   -2.186063
     21          6           0        2.761323   -0.020125   -1.151482
     22          7           0        1.768919   -1.092583   -1.067057
     23          6           0        2.017642   -2.039956    0.028930
     24         15           0        1.229243   -1.455104    1.545946
     25          8           0        1.938272   -0.151797    2.046791
     26          8           0       -0.226478   -1.255060    1.296167
     27          8           0        1.641348   -2.586547    2.547805
     28          1           0        2.779714    2.810375   -2.606264
     29          1           0        3.016903    0.319009   -0.142005
     30          1           0        3.700819   -0.344326   -1.613545
     31          1           0        1.739990   -1.600110   -1.946463
     32          1           0        3.083124   -2.240341    0.191202
     33          1           0        1.525671   -2.988748   -0.204043
     34          1           0        1.427143    0.656554    1.752503
     35          1           0        1.489216   -2.418675    3.484935
     36          1           0       -1.132267    0.103176    2.074468
 ---------------------------------------------------------------------
 Rotational constants (GHZ):           0.2630113           0.2343134           0.2134030
 Standard basis: def2TZVP (5D, 7F)
 There are   874 symmetry adapted cartesian basis functions of A   symmetry.
 There are   767 symmetry adapted basis functions of A   symmetry.
   767 basis functions,  1278 primitive gaussians,   874 cartesian basis functions
   102 alpha electrons      101 beta electrons
       nuclear repulsion energy      3115.7690520828 Hartrees.
 NAtoms=   36 NActive=   36 NUniq=   36 SFac= 1.00D+00 NAtFMM=   60 NAOKFM=F Big=F
 Integral buffers will be    131072 words long.
 Raffenetti 2 integral format.
 Two-electron integral symmetry is turned on.
 Nuclear repulsion after empirical dispersion term =     3115.7598497835 Hartrees.
 One-electron integrals computed using PRISM.
   1 Symmetry operations used in ECPInt.
 ECPInt:  NShTT=   44850 NPrTT=  146642 LenC2=   39519 LenP2D=   88390.
 LDataN:  DoStor=T MaxTD1= 6 Len=  172
 NBasis=   767 RedAO= T EigKep=  1.70D-04  NBF=   767
 NBsUse=   767 1.00D-06 EigRej= -1.00D+00 NBFU=   767
 ExpMin= 3.88D-02 ExpMax= 3.78D+05 ExpMxC= 3.65D+03 IAcc=3 IRadAn=         5 AccDes= 0.00D+00
 Harris functional with IExCor= 1009 and IRadAn=       5 diagonalized for initial guess.
 HarFok:  IExCor= 1009 AccDes= 0.00D+00 IRadAn=         5 IDoV= 1 UseB2=F ITyADJ=14
 ICtDFT=  3500011 ScaDFX=  1.000000  1.000000  1.000000  1.000000
 FoFCou: FMM=F IPFlag=           0 FMFlag=      100000 FMFlg1=           0
         NFxFlg=           0 DoJE=T BraDBF=F KetDBF=T FulRan=T
         wScrn=  0.000000 ICntrl=       500 IOpCl=  0 I1Cent=   200000004 NGrid=           0
         NMat0=    1 NMatS0=      1 NMatT0=    0 NMatD0=    1 NMtDS0=    0 NMtDT0=    0
 Petite list used in FoFCou.
 Initial guess <Sx>= 0.0000 <Sy>= 0.0000 <Sz>= 0.5000 <S**2>= 0.7500 S= 0.5000
 Requested convergence on RMS density matrix=1.00D-08 within  32 cycles.
 Requested convergence on MAX density matrix=1.00D-06.
 Requested convergence on             energy=1.00D-06.
 No special actions if energy rises.
 Restarting incremental Fock formation.
 SCF Done:  E(UM06) =  -3422.58209175     A.U. after   22 cycles
            NFock= 22  Conv=0.82D-08     -V/T= 2.0022
 <Sx>= 0.0000 <Sy>= 0.0000 <Sz>= 0.5000 <S**2>= 0.7554 S= 0.5027
 <L.S>= 0.000000000000E+00
 Annihilation of the first spin contaminant:
 S**2 before annihilation     0.7554,   after     0.7500
 QCSCF skips out because SCF is already converged.

 **********************************************************************

            Population analysis using the SCF Density.

 **********************************************************************

 Orbital symmetries:
 Alpha Orbitals:
       Occupied  (A) (A) (A) (A) (A) (A) (A) (A) (A) (A) (A) (A)
                 (A) (A) (A) (A) (A) (A) (A) (A) (A) (A) (A) (A)
                 (A) (A) (A) (A) (A) (A) (A) (A) (A) (A) (A) (A)
                 (A) (A) (A) (A) (A) (A) (A) (A) (A) (A) (A) (A)
                 (A) (A) (A) (A) (A) (A) (A) (A) (A) (A) (A) (A)
                 (A) (A) (A) (A) (A) (A) (A) (A) (A) (A) (A) (A)
                 (A) (A) (A) (A) (A) (A) (A) (A) (A) (A) (A) (A)
                 (A) (A) (A) (A) (A) (A) (A) (A) (A) (A) (A) (A)
                 (A) (A) (A) (A) (A) (A)
       Virtual   (A) (A) (A) (A) (A) (A) (A) (A) (A) (A) (A) (A)
                 (A) (A) (A) (A) (A) (A) (A) (A) (A) (A) (A) (A)
                 (A) (A) (A) (A) (A) (A) (A) (A) (A) (A) (A) (A)
                 (A) (A) (A) (A) (A) (A) (A) (A) (A) (A) (A) (A)
                 (A) (A) (A) (A) (A) (A) (A) (A) (A) (A) (A) (A)
                 (A) (A) (A) (A) (A) (A) (A) (A) (A) (A) (A) (A)
                 (A) (A) (A) (A) (A) (A) (A) (A) (A) (A) (A) (A)
                 (A) (A) (A) (A) (A) (A) (A) (A) (A) (A) (A) (A)
                 (A) (A) (A) (A) (A) (A) (A) (A) (A) (A) (A) (A)
                 (A) (A) (A) (A) (A) (A) (A) (A) (A) (A) (A) (A)
                 (A) (A) (A) (A) (A) (A) (A) (A) (A) (A) (A) (A)
                 (A) (A) (A) (A) (A) (A) (A) (A) (A) (A) (A) (A)
                 (A) (A) (A) (A) (A) (A) (A) (A) (A) (A) (A) (A)
                 (A) (A) (A) (A) (A) (A) (A) (A) (A) (A) (A) (A)
                 (A) (A) (A) (A) (A) (A) (A) (A) (A) (A) (A) (A)
                 (A) (A) (A) (A) (A) (A) (A) (A) (A) (A) (A) (A)
                 (A) (A) (A) (A) (A) (A) (A) (A) (A) (A) (A) (A)
                 (A) (A) (A) (A) (A) (A) (A) (A) (A) (A) (A) (A)
                 (A) (A) (A) (A) (A) (A) (A) (A) (A) (A) (A) (A)
                 (A) (A) (A) (A) (A) (A) (A) (A) (A) (A) (A) (A)
                 (A) (A) (A) (A) (A) (A) (A) (A) (A) (A) (A) (A)
                 (A) (A) (A) (A) (A) (A) (A) (A) (A) (A) (A) (A)
                 (A) (A) (A) (A) (A) (A) (A) (A) (A) (A) (A) (A)
                 (A) (A) (A) (A) (A) (A) (A) (A) (A) (A) (A) (A)
                 (A) (A) (A) (A) (A) (A) (A) (A) (A) (A) (A) (A)
                 (A) (A) (A) (A) (A) (A) (A) (A) (A) (A) (A) (A)
                 (A) (A) (A) (A) (A) (A) (A) (A) (A) (A) (A) (A)
                 (A) (A) (A) (A) (A) (A) (A) (A) (A) (A) (A) (A)
                 (A) (A) (A) (A) (A) (A) (A) (A) (A) (A) (A) (A)
                 (A) (A) (A) (A) (A) (A) (A) (A) (A) (A) (A) (A)
                 (A) (A) (A) (A) (A) (A) (A) (A) (A) (A) (A) (A)
                 (A) (A) (A) (A) (A) (A) (A) (A) (A) (A) (A) (A)
                 (A) (A) (A) (A) (A) (A) (A) (A) (A) (A) (A) (A)
                 (A) (A) (A) (A) (A) (A) (A) (A) (A) (A) (A) (A)
                 (A) (A) (A) (A) (A) (A) (A) (A) (A) (A) (A) (A)
                 (A) (A) (A) (A) (A) (A) (A) (A) (A) (A) (A) (A)
                 (A) (A) (A) (A) (A) (A) (A) (A) (A) (A) (A) (A)
                 (A) (A) (A) (A) (A) (A) (A) (A) (A) (A) (A) (A)
                 (A) (A) (A) (A) (A) (A) (A) (A) (A) (A) (A) (A)
                 (A) (A) (A) (A) (A) (A) (A) (A) (A) (A) (A) (A)
                 (A) (A) (A) (A) (A) (A) (A) (A) (A) (A) (A) (A)
                 (A) (A) (A) (A) (A) (A) (A) (A) (A) (A) (A) (A)
                 (A) (A) (A) (A) (A) (A) (A) (A) (A) (A) (A) (A)
                 (A) (A) (A) (A) (A) (A) (A) (A) (A) (A) (A) (A)
                 (A) (A) (A) (A) (A) (A) (A) (A) (A) (A) (A) (A)
                 (A) (A) (A) (A) (A) (A) (A) (A) (A) (A) (A) (A)
                 (A) (A) (A) (A) (A) (A) (A) (A) (A) (A) (A) (A)
                 (A) (A) (A) (A) (A) (A) (A) (A) (A) (A) (A) (A)
                 (A) (A) (A) (A) (A) (A) (A) (A) (A) (A) (A) (A)
                 (A) (A) (A) (A) (A) (A) (A) (A) (A) (A) (A) (A)
                 (A) (A) (A) (A) (A) (A) (A) (A) (A) (A) (A) (A)
                 (A) (A) (A) (A) (A) (A) (A) (A) (A) (A) (A) (A)
                 (A) (A) (A) (A) (A) (A) (A) (A) (A) (A) (A) (A)
                 (A) (A) (A) (A) (A) (A) (A) (A) (A) (A) (A) (A)
                 (A) (A) (A) (A) (A) (A) (A) (A) (A) (A) (A) (A)
                 (A) (A) (A) (A) (A)
 Beta  Orbitals:
       Occupied  (A) (A) (A) (A) (A) (A) (A) (A) (A) (A) (A) (A)
                 (A) (A) (A) (A) (A) (A) (A) (A) (A) (A) (A) (A)
                 (A) (A) (A) (A) (A) (A) (A) (A) (A) (A) (A) (A)
                 (A) (A) (A) (A) (A) (A) (A) (A) (A) (A) (A) (A)
                 (A) (A) (A) (A) (A) (A) (A) (A) (A) (A) (A) (A)
                 (A) (A) (A) (A) (A) (A) (A) (A) (A) (A) (A) (A)
                 (A) (A) (A) (A) (A) (A) (A) (A) (A) (A) (A) (A)
                 (A) (A) (A) (A) (A) (A) (A) (A) (A) (A) (A) (A)
                 (A) (A) (A) (A) (A)
       Virtual   (A) (A) (A) (A) (A) (A) (A) (A) (A) (A) (A) (A)
                 (A) (A) (A) (A) (A) (A) (A) (A) (A) (A) (A) (A)
                 (A) (A) (A) (A) (A) (A) (A) (A) (A) (A) (A) (A)
                 (A) (A) (A) (A) (A) (A) (A) (A) (A) (A) (A) (A)
                 (A) (A) (A) (A) (A) (A) (A) (A) (A) (A) (A) (A)
                 (A) (A) (A) (A) (A) (A) (A) (A) (A) (A) (A) (A)
                 (A) (A) (A) (A) (A) (A) (A) (A) (A) (A) (A) (A)
                 (A) (A) (A) (A) (A) (A) (A) (A) (A) (A) (A) (A)
                 (A) (A) (A) (A) (A) (A) (A) (A) (A) (A) (A) (A)
                 (A) (A) (A) (A) (A) (A) (A) (A) (A) (A) (A) (A)
                 (A) (A) (A) (A) (A) (A) (A) (A) (A) (A) (A) (A)
                 (A) (A) (A) (A) (A) (A) (A) (A) (A) (A) (A) (A)
                 (A) (A) (A) (A) (A) (A) (A) (A) (A) (A) (A) (A)
                 (A) (A) (A) (A) (A) (A) (A) (A) (A) (A) (A) (A)
                 (A) (A) (A) (A) (A) (A) (A) (A) (A) (A) (A) (A)
                 (A) (A) (A) (A) (A) (A) (A) (A) (A) (A) (A) (A)
                 (A) (A) (A) (A) (A) (A) (A) (A) (A) (A) (A) (A)
                 (A) (A) (A) (A) (A) (A) (A) (A) (A) (A) (A) (A)
                 (A) (A) (A) (A) (A) (A) (A) (A) (A) (A) (A) (A)
                 (A) (A) (A) (A) (A) (A) (A) (A) (A) (A) (A) (A)
                 (A) (A) (A) (A) (A) (A) (A) (A) (A) (A) (A) (A)
                 (A) (A) (A) (A) (A) (A) (A) (A) (A) (A) (A) (A)
                 (A) (A) (A) (A) (A) (A) (A) (A) (A) (A) (A) (A)
                 (A) (A) (A) (A) (A) (A) (A) (A) (A) (A) (A) (A)
                 (A) (A) (A) (A) (A) (A) (A) (A) (A) (A) (A) (A)
                 (A) (A) (A) (A) (A) (A) (A) (A) (A) (A) (A) (A)
                 (A) (A) (A) (A) (A) (A) (A) (A) (A) (A) (A) (A)
                 (A) (A) (A) (A) (A) (A) (A) (A) (A) (A) (A) (A)
                 (A) (A) (A) (A) (A) (A) (A) (A) (A) (A) (A) (A)
                 (A) (A) (A) (A) (A) (A) (A) (A) (A) (A) (A) (A)
                 (A) (A) (A) (A) (A) (A) (A) (A) (A) (A) (A) (A)
                 (A) (A) (A) (A) (A) (A) (A) (A) (A) (A) (A) (A)
                 (A) (A) (A) (A) (A) (A) (A) (A) (A) (A) (A) (A)
                 (A) (A) (A) (A) (A) (A) (A) (A) (A) (A) (A) (A)
                 (A) (A) (A) (A) (A) (A) (A) (A) (A) (A) (A) (A)
                 (A) (A) (A) (A) (A) (A) (A) (A) (A) (A) (A) (A)
                 (A) (A) (A) (A) (A) (A) (A) (A) (A) (A) (A) (A)
                 (A) (A) (A) (A) (A) (A) (A) (A) (A) (A) (A) (A)
                 (A) (A) (A) (A) (A) (A) (A) (A) (A) (A) (A) (A)
                 (A) (A) (A) (A) (A) (A) (A) (A) (A) (A) (A) (A)
                 (A) (A) (A) (A) (A) (A) (A) (A) (A) (A) (A) (A)
                 (A) (A) (A) (A) (A) (A) (A) (A) (A) (A) (A) (A)
                 (A) (A) (A) (A) (A) (A) (A) (A) (A) (A) (A) (A)
                 (A) (A) (A) (A) (A) (A) (A) (A) (A) (A) (A) (A)
                 (A) (A) (A) (A) (A) (A) (A) (A) (A) (A) (A) (A)
                 (A) (A) (A) (A) (A) (A) (A) (A) (A) (A) (A) (A)
                 (A) (A) (A) (A) (A) (A) (A) (A) (A) (A) (A) (A)
                 (A) (A) (A) (A) (A) (A) (A) (A) (A) (A) (A) (A)
                 (A) (A) (A) (A) (A) (A) (A) (A) (A) (A) (A) (A)
                 (A) (A) (A) (A) (A) (A) (A) (A) (A) (A) (A) (A)
                 (A) (A) (A) (A) (A) (A) (A) (A) (A) (A) (A) (A)
                 (A) (A) (A) (A) (A) (A) (A) (A) (A) (A) (A) (A)
                 (A) (A) (A) (A) (A) (A) (A) (A) (A) (A) (A) (A)
                 (A) (A) (A) (A) (A) (A) (A) (A) (A) (A) (A) (A)
                 (A) (A) (A) (A) (A) (A) (A) (A) (A) (A) (A) (A)
                 (A) (A) (A) (A) (A) (A)
 The electronic state is 2-A.
 Alpha  occ. eigenvalues -- -323.41433 -77.47607 -77.46237 -39.18044 -34.30069
 Alpha  occ. eigenvalues --  -34.29143 -34.28855 -19.39273 -19.38528 -19.38358
 Alpha  occ. eigenvalues --  -19.36926 -19.36920 -19.35312 -19.34183 -19.33670
 Alpha  occ. eigenvalues --  -19.32724 -19.32183 -14.57883 -14.54685 -10.51477
 Alpha  occ. eigenvalues --  -10.50599 -10.42693 -10.42317 -10.40657 -10.39896
 Alpha  occ. eigenvalues --   -6.88321  -6.87168  -5.00398  -5.00235  -5.00089
 Alpha  occ. eigenvalues --   -4.99189  -4.99093  -4.98963  -4.53753  -3.00610
 Alpha  occ. eigenvalues --   -2.98819  -2.98339  -1.27890  -1.27141  -1.25268
 Alpha  occ. eigenvalues --   -1.23946  -1.20114  -1.19074  -1.18255  -1.18183
 Alpha  occ. eigenvalues --   -1.16765  -1.14222  -1.10432  -1.07206  -0.91730
 Alpha  occ. eigenvalues --   -0.89869  -0.85746  -0.82003  -0.77998  -0.76577
 Alpha  occ. eigenvalues --   -0.76021  -0.72768  -0.71619  -0.68834  -0.68352
 Alpha  occ. eigenvalues --   -0.67521  -0.66595  -0.65495  -0.65147  -0.64411
 Alpha  occ. eigenvalues --   -0.63403  -0.63120  -0.62332  -0.61354  -0.61153
 Alpha  occ. eigenvalues --   -0.60823  -0.59908  -0.59550  -0.57570  -0.57418
 Alpha  occ. eigenvalues --   -0.56547  -0.55604  -0.55190  -0.54507  -0.54005
 Alpha  occ. eigenvalues --   -0.53395  -0.52898  -0.52546  -0.51798  -0.51696
 Alpha  occ. eigenvalues --   -0.49506  -0.48914  -0.48861  -0.48635  -0.48407
 Alpha  occ. eigenvalues --   -0.47785  -0.47682  -0.46606  -0.46258  -0.45732
 Alpha  occ. eigenvalues --   -0.45253  -0.44192  -0.43120  -0.42199  -0.40916
 Alpha  occ. eigenvalues --   -0.38214  -0.36726
 Alpha virt. eigenvalues --   -0.12884  -0.12084  -0.11771  -0.10036  -0.08708
 Alpha virt. eigenvalues --   -0.08406  -0.07722  -0.06988  -0.06395  -0.05479
 Alpha virt. eigenvalues --   -0.04964  -0.04680  -0.04042  -0.03393  -0.02959
 Alpha virt. eigenvalues --   -0.02330  -0.01510  -0.00822  -0.00708  -0.00220
 Alpha virt. eigenvalues --    0.00570   0.01030   0.01482   0.02259   0.02594
 Alpha virt. eigenvalues --    0.03456   0.03914   0.04361   0.05073   0.05507
 Alpha virt. eigenvalues --    0.06190   0.07140   0.07668   0.08297   0.09007
 Alpha virt. eigenvalues --    0.09358   0.09822   0.10352   0.11102   0.11521
 Alpha virt. eigenvalues --    0.11785   0.12217   0.13274   0.14167   0.14925
 Alpha virt. eigenvalues --    0.15288   0.15725   0.16150   0.16850   0.17192
 Alpha virt. eigenvalues --    0.17574   0.17859   0.18480   0.19567   0.19756
 Alpha virt. eigenvalues --    0.20633   0.20909   0.21517   0.22167   0.23257
 Alpha virt. eigenvalues --    0.23675   0.23836   0.24359   0.24789   0.25525
 Alpha virt. eigenvalues --    0.25579   0.25681   0.26056   0.26477   0.26870
 Alpha virt. eigenvalues --    0.27294   0.27782   0.28147   0.28281   0.29164
 Alpha virt. eigenvalues --    0.29923   0.30032   0.30525   0.31013   0.31374
 Alpha virt. eigenvalues --    0.31617   0.31931   0.32735   0.33480   0.34462
 Alpha virt. eigenvalues --    0.34996   0.35566   0.36160   0.36436   0.37573
 Alpha virt. eigenvalues --    0.37812   0.38250   0.38725   0.39371   0.39730
 Alpha virt. eigenvalues --    0.40223   0.40680   0.41303   0.41664   0.42405
 Alpha virt. eigenvalues --    0.42595   0.43640   0.44508   0.44864   0.45379
 Alpha virt. eigenvalues --    0.46140   0.48017   0.48610   0.49467   0.50223
 Alpha virt. eigenvalues --    0.50772   0.51315   0.51899   0.52595   0.53331
 Alpha virt. eigenvalues --    0.54509   0.55023   0.55854   0.56480   0.56980
 Alpha virt. eigenvalues --    0.58089   0.58561   0.58868   0.59179   0.59913
 Alpha virt. eigenvalues --    0.60807   0.61218   0.61697   0.62220   0.62925
 Alpha virt. eigenvalues --    0.63928   0.64440   0.64545   0.65286   0.65582
 Alpha virt. eigenvalues --    0.66541   0.67254   0.67727   0.69001   0.69697
 Alpha virt. eigenvalues --    0.70438   0.71861   0.71944   0.72727   0.73009
 Alpha virt. eigenvalues --    0.73752   0.73990   0.74775   0.75621   0.76674
 Alpha virt. eigenvalues --    0.77313   0.78264   0.79744   0.80066   0.82340
 Alpha virt. eigenvalues --    0.83090   0.83393   0.84904   0.86193   0.86640
 Alpha virt. eigenvalues --    0.88001   0.88183   0.89075   0.89652   0.90849
 Alpha virt. eigenvalues --    0.91596   0.92841   0.93656   0.95183   0.95831
 Alpha virt. eigenvalues --    0.96699   0.96961   0.97888   0.98782   0.99984
 Alpha virt. eigenvalues --    1.00774   1.01470   1.03718   1.04996   1.05931
 Alpha virt. eigenvalues --    1.06642   1.07538   1.08884   1.10248   1.12450
 Alpha virt. eigenvalues --    1.12875   1.14422   1.14576   1.15090   1.18297
 Alpha virt. eigenvalues --    1.18392   1.19420   1.19931   1.20878   1.21662
 Alpha virt. eigenvalues --    1.21915   1.22563   1.23005   1.23770   1.25045
 Alpha virt. eigenvalues --    1.25926   1.26631   1.27298   1.28221   1.28735
 Alpha virt. eigenvalues --    1.29606   1.30650   1.31340   1.32051   1.32783
 Alpha virt. eigenvalues --    1.33070   1.33848   1.34620   1.35515   1.36883
 Alpha virt. eigenvalues --    1.37347   1.39082   1.39555   1.40333   1.41148
 Alpha virt. eigenvalues --    1.41486   1.42875   1.43575   1.44534   1.45368
 Alpha virt. eigenvalues --    1.45571   1.46719   1.47822   1.47997   1.49221
 Alpha virt. eigenvalues --    1.49748   1.50270   1.51166   1.51849   1.52523
 Alpha virt. eigenvalues --    1.53536   1.54278   1.55027   1.55871   1.56971
 Alpha virt. eigenvalues --    1.57512   1.58236   1.58847   1.60058   1.60717
 Alpha virt. eigenvalues --    1.61535   1.62555   1.63895   1.64916   1.66067
 Alpha virt. eigenvalues --    1.67880   1.68923   1.69290   1.70065   1.71119
 Alpha virt. eigenvalues --    1.72060   1.72527   1.74328   1.74716   1.75958
 Alpha virt. eigenvalues --    1.76286   1.78490   1.78718   1.79837   1.80917
 Alpha virt. eigenvalues --    1.81276   1.82075   1.83090   1.83739   1.84424
 Alpha virt. eigenvalues --    1.84765   1.86167   1.86473   1.86959   1.88327
 Alpha virt. eigenvalues --    1.88610   1.90235   1.90562   1.90981   1.91451
 Alpha virt. eigenvalues --    1.91905   1.92525   1.93352   1.94173   1.95301
 Alpha virt. eigenvalues --    1.95836   1.96820   1.97794   1.98199   1.99242
 Alpha virt. eigenvalues --    2.00254   2.02676   2.03259   2.03692   2.04877
 Alpha virt. eigenvalues --    2.04944   2.05016   2.06421   2.06763   2.07462
 Alpha virt. eigenvalues --    2.07661   2.09405   2.10325   2.10450   2.11247
 Alpha virt. eigenvalues --    2.11671   2.12827   2.13334   2.14678   2.15438
 Alpha virt. eigenvalues --    2.16182   2.16513   2.18165   2.18913   2.19945
 Alpha virt. eigenvalues --    2.21037   2.22483   2.23491   2.23804   2.25560
 Alpha virt. eigenvalues --    2.26159   2.26961   2.27710   2.28393   2.29470
 Alpha virt. eigenvalues --    2.31587   2.32260   2.32762   2.33195   2.34073
 Alpha virt. eigenvalues --    2.35197   2.35253   2.37288   2.37737   2.39403
 Alpha virt. eigenvalues --    2.39830   2.41327   2.41888   2.43560   2.44706
 Alpha virt. eigenvalues --    2.45786   2.46414   2.47448   2.47537   2.50315
 Alpha virt. eigenvalues --    2.51037   2.51834   2.52866   2.53158   2.55209
 Alpha virt. eigenvalues --    2.55876   2.57088   2.57667   2.59492   2.60405
 Alpha virt. eigenvalues --    2.61179   2.62610   2.64173   2.65251   2.66402
 Alpha virt. eigenvalues --    2.67260   2.68716   2.68962   2.69352   2.72145
 Alpha virt. eigenvalues --    2.73568   2.73929   2.75785   2.76694   2.77475
 Alpha virt. eigenvalues --    2.78605   2.79505   2.81544   2.81703   2.82505
 Alpha virt. eigenvalues --    2.82856   2.85605   2.86411   2.87110   2.88350
 Alpha virt. eigenvalues --    2.89841   2.90056   2.91337   2.91791   2.93736
 Alpha virt. eigenvalues --    2.93976   2.94199   2.95225   2.96007   2.96680
 Alpha virt. eigenvalues --    2.97269   2.97809   2.98723   2.99575   3.00950
 Alpha virt. eigenvalues --    3.01090   3.01967   3.02546   3.03621   3.04242
 Alpha virt. eigenvalues --    3.05951   3.06649   3.07561   3.08179   3.08784
 Alpha virt. eigenvalues --    3.09223   3.09775   3.11750   3.12160   3.13184
 Alpha virt. eigenvalues --    3.14142   3.15129   3.16338   3.17102   3.19040
 Alpha virt. eigenvalues --    3.19871   3.21184   3.22803   3.22985   3.24577
 Alpha virt. eigenvalues --    3.26101   3.26240   3.27223   3.28336   3.28807
 Alpha virt. eigenvalues --    3.29902   3.30273   3.32219   3.33737   3.34852
 Alpha virt. eigenvalues --    3.36034   3.37208   3.39425   3.40600   3.40798
 Alpha virt. eigenvalues --    3.41570   3.42876   3.46808   3.49101   3.50141
 Alpha virt. eigenvalues --    3.51116   3.53025   3.54189   3.56985   3.57711
 Alpha virt. eigenvalues --    3.61548   3.63730   3.64792   3.65971   3.66403
 Alpha virt. eigenvalues --    3.67282   3.68217   3.69043   3.69821   3.71535
 Alpha virt. eigenvalues --    3.73500   3.73819   3.80743   3.81212   3.81699
 Alpha virt. eigenvalues --    3.82976   3.84850   3.85264   3.86798   3.88374
 Alpha virt. eigenvalues --    3.89946   3.91084   3.91896   3.92868   3.95172
 Alpha virt. eigenvalues --    3.97020   3.97931   3.98658   4.00986   4.01741
 Alpha virt. eigenvalues --    4.03157   4.06280   4.09096   4.11174   4.19045
 Alpha virt. eigenvalues --    4.22402   4.27974   4.30448   4.31025   4.33380
 Alpha virt. eigenvalues --    4.38748   4.42022   4.48644   4.52485   4.56015
 Alpha virt. eigenvalues --    4.57521   4.58468   4.67590   4.71413   4.77327
 Alpha virt. eigenvalues --    4.87300   4.89644   4.91755   4.95318   4.96126
 Alpha virt. eigenvalues --    4.97399   4.98679   4.99655   5.01279   5.01681
 Alpha virt. eigenvalues --    5.02131   5.02428   5.03385   5.03759   5.03969
 Alpha virt. eigenvalues --    5.04131   5.04827   5.05710   5.06424   5.06894
 Alpha virt. eigenvalues --    5.07453   5.08350   5.08451   5.08727   5.09598
 Alpha virt. eigenvalues --    5.10550   5.10949   5.11678   5.13148   5.13579
 Alpha virt. eigenvalues --    5.14006   5.14439   5.15153   5.16465   5.16662
 Alpha virt. eigenvalues --    5.17740   5.19844   5.21536   5.23280   5.24335
 Alpha virt. eigenvalues --    5.24584   5.26058   5.26751   5.27124   5.27658
 Alpha virt. eigenvalues --    5.27824   5.28504   5.29113   5.29766   5.30450
 Alpha virt. eigenvalues --    5.32272   5.34682   5.35748   5.36554   5.37675
 Alpha virt. eigenvalues --    5.39411   5.39836   5.40848   5.42090   5.44869
 Alpha virt. eigenvalues --    5.46630   5.49693   5.51173   5.52195   5.56240
 Alpha virt. eigenvalues --    5.57598   5.59976   5.61824   5.67389   5.68427
 Alpha virt. eigenvalues --    5.69519   5.70205   5.70600   5.71563   5.71783
 Alpha virt. eigenvalues --    5.74314   5.78012   5.79388   5.79798   5.82950
 Alpha virt. eigenvalues --    5.83387   5.96858   6.02589   6.04699   6.05868
 Alpha virt. eigenvalues --    6.07028   6.09918   6.11081   6.11345   6.11888
 Alpha virt. eigenvalues --    6.25815   6.26585   6.27688   6.28392   6.28514
 Alpha virt. eigenvalues --    6.30941   6.32066   6.34764   6.35660   6.37665
 Alpha virt. eigenvalues --    6.40098   6.42420   6.43526   6.45051   6.48548
 Alpha virt. eigenvalues --    6.51126   6.51666   6.54010   6.54560   6.55344
 Alpha virt. eigenvalues --    6.56392   6.57551   6.60352   6.62316   6.62677
 Alpha virt. eigenvalues --    6.63422   6.65248   6.67891   6.68351   6.69303
 Alpha virt. eigenvalues --    6.69766   6.70360   6.72871   6.74112   6.74858
 Alpha virt. eigenvalues --    6.75905   6.76337   6.77846   6.79030   6.82800
 Alpha virt. eigenvalues --    6.83145   6.86031   6.90286   6.91808   6.94686
 Alpha virt. eigenvalues --    6.99713   7.03503   7.04424   7.04841   7.07927
 Alpha virt. eigenvalues --    7.08175   7.08805   7.21288   7.21920   7.75270
 Alpha virt. eigenvalues --    7.79099   7.92506   7.97644   8.15529   8.18568
 Alpha virt. eigenvalues --   16.80335  16.94080  22.26113  22.31207  22.37562
 Alpha virt. eigenvalues --   22.43984  23.21558  23.24219  32.25146  32.33811
 Alpha virt. eigenvalues --   43.42930  43.55384  43.59124  43.59842  43.70342
 Alpha virt. eigenvalues --   43.71315  43.75751  43.78909  43.82143  43.86796
  Beta  occ. eigenvalues -- -323.41410 -77.47607 -77.46198 -39.17440 -34.29219
  Beta  occ. eigenvalues --  -34.28686 -34.28461 -19.39272 -19.38522 -19.38356
  Beta  occ. eigenvalues --  -19.36919 -19.36911 -19.35299 -19.34170 -19.33642
  Beta  occ. eigenvalues --  -19.32710 -19.32138 -14.57877 -14.53688 -10.51477
  Beta  occ. eigenvalues --  -10.50600 -10.42693 -10.42317 -10.40710 -10.39941
  Beta  occ. eigenvalues --   -6.88321  -6.87133  -5.00398  -5.00235  -5.00088
  Beta  occ. eigenvalues --   -4.99156  -4.99054  -4.98890  -4.52021  -2.97804
  Beta  occ. eigenvalues --   -2.97406  -2.97132  -1.27880  -1.27110  -1.25254
  Beta  occ. eigenvalues --   -1.23892  -1.20108  -1.19053  -1.18215  -1.18126
  Beta  occ. eigenvalues --   -1.16727  -1.14127  -1.10417  -1.04670  -0.91726
  Beta  occ. eigenvalues --   -0.89587  -0.85740  -0.81344  -0.77983  -0.76533
  Beta  occ. eigenvalues --   -0.75878  -0.72096  -0.71586  -0.68800  -0.68248
  Beta  occ. eigenvalues --   -0.67474  -0.66139  -0.65430  -0.64841  -0.64140
  Beta  occ. eigenvalues --   -0.63188  -0.62902  -0.62263  -0.61139  -0.61051
  Beta  occ. eigenvalues --   -0.60589  -0.59703  -0.59232  -0.57512  -0.56951
  Beta  occ. eigenvalues --   -0.55986  -0.55554  -0.55116  -0.54355  -0.53843
  Beta  occ. eigenvalues --   -0.53319  -0.52684  -0.52452  -0.51743  -0.50584
  Beta  occ. eigenvalues --   -0.49315  -0.48711  -0.48533  -0.48299  -0.47916
  Beta  occ. eigenvalues --   -0.47684  -0.47295  -0.46335  -0.46017  -0.45452
  Beta  occ. eigenvalues --   -0.44555  -0.42163  -0.41697  -0.41090  -0.40139
  Beta  occ. eigenvalues --   -0.34759
  Beta virt. eigenvalues --   -0.24206  -0.12829  -0.12010  -0.11690  -0.10003
  Beta virt. eigenvalues --   -0.08660  -0.08370  -0.07705  -0.06687  -0.06336
  Beta virt. eigenvalues --   -0.05369  -0.04872  -0.04640  -0.04011  -0.03215
  Beta virt. eigenvalues --   -0.02794  -0.02207  -0.01388  -0.00658  -0.00640
  Beta virt. eigenvalues --   -0.00116   0.00590   0.01129   0.01578   0.02492
  Beta virt. eigenvalues --    0.02654   0.03651   0.03965   0.04504   0.05314
  Beta virt. eigenvalues --    0.05800   0.06374   0.07203   0.07801   0.08327
  Beta virt. eigenvalues --    0.09100   0.09465   0.10013   0.10524   0.11221
  Beta virt. eigenvalues --    0.11621   0.11924   0.12305   0.13340   0.14246
  Beta virt. eigenvalues --    0.14984   0.15383   0.15864   0.16320   0.16890
  Beta virt. eigenvalues --    0.17262   0.17689   0.17947   0.18629   0.19667
  Beta virt. eigenvalues --    0.19830   0.20711   0.20948   0.21607   0.22218
  Beta virt. eigenvalues --    0.23309   0.23711   0.23907   0.24435   0.24816
  Beta virt. eigenvalues --    0.25565   0.25662   0.25753   0.26144   0.26630
  Beta virt. eigenvalues --    0.27046   0.27419   0.27877   0.28224   0.28458
  Beta virt. eigenvalues --    0.29249   0.29975   0.30147   0.30588   0.31179
  Beta virt. eigenvalues --    0.31545   0.31720   0.32085   0.32920   0.33660
  Beta virt. eigenvalues --    0.34541   0.35105   0.35616   0.36270   0.36599
  Beta virt. eigenvalues --    0.37688   0.37845   0.38304   0.38807   0.39437
  Beta virt. eigenvalues --    0.39791   0.40276   0.40770   0.41538   0.41779
  Beta virt. eigenvalues --    0.42498   0.42663   0.43738   0.44538   0.44901
  Beta virt. eigenvalues --    0.45439   0.46377   0.48062   0.48640   0.49615
  Beta virt. eigenvalues --    0.50271   0.50806   0.51391   0.51959   0.52768
  Beta virt. eigenvalues --    0.53387   0.54584   0.55122   0.55881   0.56547
  Beta virt. eigenvalues --    0.57023   0.58117   0.58592   0.58910   0.59253
  Beta virt. eigenvalues --    0.59986   0.60851   0.61268   0.61748   0.62331
  Beta virt. eigenvalues --    0.62985   0.63986   0.64530   0.64586   0.65360
  Beta virt. eigenvalues --    0.65608   0.66591   0.67453   0.67818   0.69085
  Beta virt. eigenvalues --    0.69832   0.70514   0.71944   0.72065   0.72800
  Beta virt. eigenvalues --    0.73063   0.73801   0.74158   0.74836   0.75694
  Beta virt. eigenvalues --    0.76718   0.77363   0.78479   0.79939   0.80143
  Beta virt. eigenvalues --    0.82411   0.83235   0.83514   0.85109   0.86287
  Beta virt. eigenvalues --    0.86725   0.88085   0.88413   0.89139   0.89774
  Beta virt. eigenvalues --    0.90923   0.91627   0.92937   0.93777   0.95250
  Beta virt. eigenvalues --    0.95966   0.96824   0.97070   0.97994   0.98869
  Beta virt. eigenvalues --    1.00163   1.00863   1.01577   1.03931   1.05094
  Beta virt. eigenvalues --    1.06000   1.06813   1.07779   1.09043   1.10319
  Beta virt. eigenvalues --    1.12540   1.12975   1.14498   1.14656   1.15150
  Beta virt. eigenvalues --    1.18393   1.18526   1.19532   1.19971   1.20934
  Beta virt. eigenvalues --    1.21719   1.22027   1.22646   1.23096   1.23941
  Beta virt. eigenvalues --    1.25126   1.26054   1.26652   1.27476   1.28313
  Beta virt. eigenvalues --    1.28899   1.29765   1.30717   1.31385   1.32145
  Beta virt. eigenvalues --    1.32880   1.33152   1.34058   1.34778   1.35612
  Beta virt. eigenvalues --    1.37143   1.37599   1.39222   1.39679   1.40508
  Beta virt. eigenvalues --    1.41224   1.41664   1.43005   1.43685   1.44841
  Beta virt. eigenvalues --    1.45687   1.45739   1.46831   1.47902   1.48041
  Beta virt. eigenvalues --    1.49336   1.49859   1.50488   1.51431   1.52032
  Beta virt. eigenvalues --    1.52620   1.53839   1.54525   1.55126   1.55952
  Beta virt. eigenvalues --    1.57012   1.57600   1.58398   1.59208   1.60234
  Beta virt. eigenvalues --    1.60831   1.61685   1.62585   1.63977   1.65077
  Beta virt. eigenvalues --    1.66125   1.67927   1.69102   1.69347   1.70225
  Beta virt. eigenvalues --    1.71172   1.72141   1.72586   1.74391   1.74768
  Beta virt. eigenvalues --    1.75987   1.76362   1.78547   1.78756   1.79967
  Beta virt. eigenvalues --    1.80963   1.81317   1.82144   1.83171   1.83765
  Beta virt. eigenvalues --    1.84462   1.84887   1.86289   1.86650   1.87007
  Beta virt. eigenvalues --    1.88355   1.88640   1.90258   1.90559   1.91007
  Beta virt. eigenvalues --    1.91536   1.91964   1.92614   1.93436   1.94402
  Beta virt. eigenvalues --    1.95332   1.95908   1.96884   1.97960   1.98312
  Beta virt. eigenvalues --    1.99277   2.00342   2.02761   2.03447   2.03795
  Beta virt. eigenvalues --    2.04920   2.04986   2.05352   2.06458   2.06843
  Beta virt. eigenvalues --    2.07500   2.07736   2.09438   2.10381   2.10511
  Beta virt. eigenvalues --    2.11279   2.11768   2.12855   2.13375   2.14799
  Beta virt. eigenvalues --    2.15531   2.16230   2.16585   2.18194   2.19029
  Beta virt. eigenvalues --    2.20058   2.21089   2.22527   2.23535   2.23815
  Beta virt. eigenvalues --    2.25628   2.26294   2.27091   2.27769   2.28684
  Beta virt. eigenvalues --    2.29511   2.31699   2.32292   2.32871   2.33277
  Beta virt. eigenvalues --    2.34256   2.35310   2.35436   2.37324   2.37881
  Beta virt. eigenvalues --    2.39456   2.39901   2.41358   2.41923   2.43792
  Beta virt. eigenvalues --    2.44777   2.45882   2.46494   2.47501   2.48275
  Beta virt. eigenvalues --    2.50478   2.51090   2.51926   2.52975   2.53224
  Beta virt. eigenvalues --    2.55242   2.55952   2.57136   2.57814   2.59594
  Beta virt. eigenvalues --    2.60481   2.61218   2.62677   2.64197   2.65311
  Beta virt. eigenvalues --    2.66540   2.67521   2.68770   2.68981   2.69628
  Beta virt. eigenvalues --    2.72281   2.73682   2.74094   2.75827   2.76943
  Beta virt. eigenvalues --    2.77643   2.78751   2.79556   2.81632   2.81783
  Beta virt. eigenvalues --    2.82569   2.82922   2.85686   2.86521   2.87207
  Beta virt. eigenvalues --    2.88472   2.89916   2.90210   2.91402   2.91810
  Beta virt. eigenvalues --    2.93792   2.94110   2.94260   2.95273   2.96062
  Beta virt. eigenvalues --    2.96767   2.97407   2.97930   2.98769   2.99835
  Beta virt. eigenvalues --    3.01004   3.01230   3.02014   3.02600   3.03741
  Beta virt. eigenvalues --    3.04386   3.06144   3.06658   3.07681   3.08249
  Beta virt. eigenvalues --    3.08863   3.09395   3.09887   3.11995   3.12251
  Beta virt. eigenvalues --    3.13257   3.14242   3.15415   3.16479   3.17360
  Beta virt. eigenvalues --    3.19207   3.19916   3.21522   3.22939   3.23079
  Beta virt. eigenvalues --    3.24631   3.26170   3.26331   3.27258   3.28492
  Beta virt. eigenvalues --    3.28895   3.30007   3.30410   3.32269   3.33760
  Beta virt. eigenvalues --    3.34935   3.36148   3.37288   3.39609   3.40643
  Beta virt. eigenvalues --    3.40864   3.41663   3.43126   3.46840   3.49100
  Beta virt. eigenvalues --    3.50042   3.51164   3.53105   3.54242   3.57353
  Beta virt. eigenvalues --    3.57774   3.61687   3.63820   3.65226   3.66083
  Beta virt. eigenvalues --    3.66537   3.67448   3.68349   3.69146   3.69960
  Beta virt. eigenvalues --    3.71667   3.73692   3.74206   3.81112   3.81371
  Beta virt. eigenvalues --    3.81915   3.83399   3.85304   3.85387   3.86880
  Beta virt. eigenvalues --    3.88597   3.90026   3.91226   3.91960   3.92973
  Beta virt. eigenvalues --    3.95394   3.97210   3.97975   3.98949   4.01130
  Beta virt. eigenvalues --    4.01961   4.03354   4.06695   4.09273   4.11448
  Beta virt. eigenvalues --    4.19297   4.22440   4.28229   4.30527   4.31180
  Beta virt. eigenvalues --    4.33447   4.39198   4.42308   4.49262   4.52913
  Beta virt. eigenvalues --    4.56200   4.57622   4.58825   4.68707   4.71719
  Beta virt. eigenvalues --    4.78437   4.89352   4.89724   4.92352   4.95853
  Beta virt. eigenvalues --    4.97149   4.97574   4.98757   5.00181   5.01508
  Beta virt. eigenvalues --    5.01711   5.02188   5.02914   5.03487   5.03810
  Beta virt. eigenvalues --    5.04120   5.04247   5.04895   5.05825   5.06517
  Beta virt. eigenvalues --    5.07158   5.07663   5.08576   5.08734   5.09495
  Beta virt. eigenvalues --    5.09668   5.10735   5.11111   5.11923   5.13365
  Beta virt. eigenvalues --    5.13846   5.14233   5.14549   5.15791   5.16630
  Beta virt. eigenvalues --    5.16912   5.18798   5.20695   5.22245   5.23330
  Beta virt. eigenvalues --    5.24395   5.24613   5.26485   5.26786   5.27150
  Beta virt. eigenvalues --    5.27694   5.27922   5.28559   5.29290   5.29890
  Beta virt. eigenvalues --    5.30505   5.32879   5.34806   5.36211   5.36743
  Beta virt. eigenvalues --    5.38196   5.39508   5.40072   5.41074   5.42174
  Beta virt. eigenvalues --    5.44926   5.46708   5.49725   5.51205   5.52277
  Beta virt. eigenvalues --    5.56266   5.57669   5.60298   5.61914   5.67562
  Beta virt. eigenvalues --    5.68570   5.69871   5.71040   5.71143   5.72333
  Beta virt. eigenvalues --    5.72630   5.75829   5.78832   5.79878   5.80055
  Beta virt. eigenvalues --    5.82992   5.83416   5.98188   6.02624   6.04726
  Beta virt. eigenvalues --    6.05897   6.07040   6.09933   6.11094   6.11370
  Beta virt. eigenvalues --    6.11928   6.25863   6.26600   6.27779   6.28448
  Beta virt. eigenvalues --    6.28546   6.30963   6.32137   6.34817   6.35720
  Beta virt. eigenvalues --    6.37759   6.40160   6.42542   6.43584   6.45124
  Beta virt. eigenvalues --    6.48614   6.51186   6.51736   6.54054   6.54628
  Beta virt. eigenvalues --    6.55367   6.56434   6.57612   6.60380   6.62379
  Beta virt. eigenvalues --    6.62702   6.63464   6.65314   6.67956   6.68383
  Beta virt. eigenvalues --    6.69368   6.69814   6.70403   6.72950   6.74171
  Beta virt. eigenvalues --    6.74922   6.75955   6.76396   6.77909   6.79092
  Beta virt. eigenvalues --    6.82844   6.83166   6.86085   6.90342   6.91889
  Beta virt. eigenvalues --    6.94718   6.99806   7.03528   7.04451   7.04868
  Beta virt. eigenvalues --    7.07988   7.08205   7.08913   7.21326   7.21930
  Beta virt. eigenvalues --    7.75577   7.79146   7.92554   7.97643   8.15516
  Beta virt. eigenvalues --    8.18679  16.80467  16.94078  22.26114  22.31282
  Beta virt. eigenvalues --   22.37563  22.44093  23.21556  23.24217  32.25272
  Beta virt. eigenvalues --   32.34567  43.42943  43.55397  43.59134  43.59846
  Beta virt. eigenvalues --   43.70355  43.71316  43.75777  43.78938  43.82160
  Beta virt. eigenvalues --   43.86815
          Condensed to atoms (all electrons):
               1          2          3          4          5          6
     1  C    4.543791   0.234156  -0.019509   0.362755   0.455721   0.009388
     2  C    0.234156   5.193444   0.183525  -0.105649  -0.059181  -0.047065
     3  N   -0.019509   0.183525   6.752858   0.003371  -0.036070   0.183865
     4  O    0.362755  -0.105649   0.003371   7.922942  -0.073126  -0.000397
     5  O    0.455721  -0.059181  -0.036070  -0.073126   8.067451  -0.000164
     6  C    0.009388  -0.047065   0.183865  -0.000397  -0.000164   5.067488
     7  P   -0.000941   0.000655  -0.035595  -0.000001   0.000207   0.315755
     8  O    0.000003   0.000362   0.002265  -0.000000   0.000000  -0.039778
     9  O    0.000001   0.000660  -0.002948  -0.000000   0.000042  -0.020974
    10  O   -0.003320   0.005838   0.005152   0.000005   0.000062  -0.028400
    11  H    0.000001  -0.000044  -0.000310  -0.000000  -0.000000   0.005218
    12  Cu   0.001078  -0.094187   0.237972   0.000199   0.067797  -0.056221
    13  H   -0.019103   0.015663  -0.000471   0.285449   0.007202   0.000056
    14  H   -0.013158   0.391879  -0.025225   0.003672   0.000321  -0.013730
    15  H   -0.031315   0.399217  -0.050379   0.002413   0.000293   0.003930
    16  H   -0.000516   0.009253  -0.031327   0.000004   0.000046   0.402996
    17  H    0.000757  -0.013990  -0.031237  -0.000032  -0.000041   0.395214
    18  C    0.000010  -0.000028   0.001076   0.000001   0.000182  -0.001316
    19  O    0.000001  -0.000004  -0.000037  -0.000000   0.000000   0.000059
    20  O    0.000530  -0.000622  -0.016097   0.000000   0.000402   0.000113
    21  C   -0.000118   0.000298  -0.000298  -0.000001  -0.000087   0.000214
    22  N    0.001377  -0.000722  -0.007349  -0.000014  -0.011224  -0.000190
    23  C   -0.000774   0.000367   0.000167   0.000012   0.000367   0.000390
    24  P    0.000386  -0.000351   0.001517  -0.000014   0.001370  -0.001184
    25  O    0.000005   0.000013  -0.000064  -0.000000  -0.000011  -0.000152
    26  O   -0.001325   0.000734  -0.005405  -0.000061  -0.011289  -0.001193
    27  O   -0.000013   0.000012  -0.000003   0.000000  -0.000011  -0.000003
    28  H   -0.000001   0.000001   0.000022   0.000000  -0.000000  -0.000079
    29  H    0.000002  -0.000003   0.000009   0.000000   0.000013   0.000095
    30  H   -0.000000   0.000000  -0.000005  -0.000000  -0.000015  -0.000013
    31  H    0.000116  -0.000021  -0.000062   0.000001  -0.000140   0.000070
    32  H    0.000013   0.000001  -0.000011  -0.000000   0.000009   0.000000
    33  H   -0.000056   0.000097  -0.000026  -0.000011   0.001012  -0.000016
    34  H    0.000055  -0.000177  -0.000027   0.000000   0.000006   0.001880
    35  H    0.000000  -0.000001   0.000002  -0.000000   0.000002   0.000001
    36  H    0.000312   0.000018   0.000266   0.000006   0.000109   0.003138
               7          8          9         10         11         12
     1  C   -0.000941   0.000003   0.000001  -0.003320   0.000001   0.001078
     2  C    0.000655   0.000362   0.000660   0.005838  -0.000044  -0.094187
     3  N   -0.035595   0.002265  -0.002948   0.005152  -0.000310   0.237972
     4  O   -0.000001  -0.000000  -0.000000   0.000005  -0.000000   0.000199
     5  O    0.000207   0.000000   0.000042   0.000062  -0.000000   0.067797
     6  C    0.315755  -0.039778  -0.020974  -0.028400   0.005218  -0.056221
     7  P   12.742690   0.415483   0.538930   0.320789  -0.005314   0.009523
     8  O    0.415483   7.853265  -0.027349  -0.030478   0.292670  -0.000260
     9  O    0.538930  -0.027349   7.997124  -0.035079   0.000227   0.014370
    10  O    0.320789  -0.030478  -0.035079   7.969910  -0.000267  -0.000787
    11  H   -0.005314   0.292670   0.000227  -0.000267   0.342316   0.000236
    12  Cu   0.009523  -0.000260   0.014370  -0.000787   0.000236  28.583685
    13  H   -0.000001   0.000000  -0.000000  -0.000002  -0.000000   0.000319
    14  H   -0.000347  -0.000000   0.000001   0.000756  -0.000003   0.000090
    15  H   -0.000260  -0.000096   0.000167   0.002620   0.000033   0.012075
    16  H   -0.032933   0.002791  -0.000938   0.001931  -0.000478  -0.015472
    17  H   -0.025004   0.002717   0.001243  -0.000786  -0.000356   0.010310
    18  C   -0.000491  -0.000034  -0.008737  -0.000007  -0.000001   0.007315
    19  O   -0.000015   0.000000   0.000068   0.000000  -0.000000  -0.000038
    20  O   -0.000055  -0.000008  -0.006023  -0.000004  -0.000000   0.047488
    21  C   -0.000228   0.000015   0.004814   0.000037  -0.000004  -0.047725
    22  N    0.000620  -0.000001  -0.002959  -0.000040   0.000001   0.147247
    23  C   -0.000746  -0.000003  -0.000577  -0.000029   0.000001  -0.024066
    24  P    0.007408   0.000053   0.004890  -0.000401  -0.000005   0.000489
    25  O   -0.000919  -0.000004  -0.040753  -0.000428  -0.000031   0.000066
    26  O    0.006584  -0.000028  -0.010183  -0.029836   0.000020   0.043122
    27  O    0.000039  -0.000000  -0.000028  -0.000009   0.000000   0.000107
    28  H    0.000030   0.000000  -0.000034   0.000000   0.000000   0.000379
    29  H   -0.000245   0.000004   0.000710   0.000008  -0.000001  -0.002725
    30  H    0.000012   0.000000   0.000071   0.000000   0.000000   0.003486
    31  H   -0.000056   0.000000  -0.000027  -0.000003  -0.000000  -0.024169
    32  H   -0.000000   0.000000   0.000069   0.000004  -0.000000   0.006441
    33  H    0.000046   0.000000   0.000022  -0.000006  -0.000000  -0.007017
    34  H   -0.006366  -0.000519   0.055166   0.001502   0.000234  -0.003030
    35  H   -0.000005   0.000000   0.000023  -0.000026  -0.000000  -0.000100
    36  H   -0.005290   0.001008  -0.001235   0.282637   0.000118  -0.004060
              13         14         15         16         17         18
     1  C   -0.019103  -0.013158  -0.031315  -0.000516   0.000757   0.000010
     2  C    0.015663   0.391879   0.399217   0.009253  -0.013990  -0.000028
     3  N   -0.000471  -0.025225  -0.050379  -0.031327  -0.031237   0.001076
     4  O    0.285449   0.003672   0.002413   0.000004  -0.000032   0.000001
     5  O    0.007202   0.000321   0.000293   0.000046  -0.000041   0.000182
     6  C    0.000056  -0.013730   0.003930   0.402996   0.395214  -0.001316
     7  P   -0.000001  -0.000347  -0.000260  -0.032933  -0.025004  -0.000491
     8  O    0.000000  -0.000000  -0.000096   0.002791   0.002717  -0.000034
     9  O   -0.000000   0.000001   0.000167  -0.000938   0.001243  -0.008737
    10  O   -0.000002   0.000756   0.002620   0.001931  -0.000786  -0.000007
    11  H   -0.000000  -0.000003   0.000033  -0.000478  -0.000356  -0.000001
    12  Cu   0.000319   0.000090   0.012075  -0.015472   0.010310   0.007315
    13  H    0.347557  -0.000445  -0.000624  -0.000001   0.000002  -0.000001
    14  H   -0.000445   0.515981  -0.028504   0.001027   0.004406   0.000003
    15  H   -0.000624  -0.028504   0.511435  -0.001076  -0.001701  -0.000000
    16  H   -0.000001   0.001027  -0.001076   0.507296  -0.014579   0.000029
[...]
 0345686,0.00627600,-0.04583449,-0.15417147,-0.30209720,-0.00077959,-0.
 01038604,-0.02730477,-0.00189546,0.00390144,0.00014597,-0.00004680,-0.
 00037996,0.00050933,0.00057940,-0.00045021,0.00014008,0.00038051,0.000
 16663,-0.00180000,0.00002484,0.00007348,0.00004790,0.00105643,0.001476
 96,0.00071771,0.00058438,0.00056981,0.00062111,0.04130486,0.15903736,0
 .32081152,0.00030856,0.00011174,-0.00000534,-0.00001097,0.00001884,0.0
 0002159,0.00023720,-0.00004704,-0.00008019,-0.00012705,-0.00012970,-0.
 00001576,-0.00016655,-0.00000432,-0.00002769,0.00005881,0.00001750,0.0
 0000915,-0.00020905,-0.00029675,0.00000278,0.00002074,0.00012244,0.000
 05456,0.00022605,-0.00001449,0.00007981,-0.00008326,0.00034368,-0.0000
 2790,-0.00000923,-0.00001621,-0.00001769,-0.00007089,-0.00026176,0.000
 18441,0.00001335,0.00004619,0.00001749,-0.00000503,-0.00001446,-0.0000
 1123,0.00001214,-0.00000709,-0.00000231,-0.00002300,0.00000458,-0.0000
 0179,-0.00000289,0.00001074,0.00000896,-0.00015526,0.00015311,-0.00008
 273,0.00003248,0.00003788,-0.00001664,0.00033068,-0.00025925,0.0001591
 3,0.00269529,-0.00225160,-0.00025560,0.00149579,0.00192789,-0.00240938
 ,-0.28055090,0.07725359,-0.01503695,-0.00930600,0.00099851,-0.00212227
 ,0.00064707,-0.00021019,0.00021823,0.00005169,0.00111914,0.00160250,0.
 00111934,-0.00044740,-0.00073848,-0.00000755,-0.00001108,0.00001405,0.
 00004839,0.00017509,0.00011657,0.00028389,0.00147343,-0.00031576,-0.00
 038249,0.00026125,-0.00012466,0.29751582,0.00039714,-0.00021073,-0.000
 15186,-0.00005244,-0.00013723,0.00007174,-0.00063547,0.00021401,0.0001
 0683,-0.00004015,0.00007308,0.00001140,-0.00021918,0.00038951,-0.00005
 525,-0.00017185,-0.00002189,-0.00010855,0.00050250,0.00012267,0.000294
 83,-0.00008488,-0.00010705,-0.00012129,-0.00047354,0.00011277,-0.00020
 943,-0.00007690,-0.00004626,-0.00006381,0.00001907,-0.00000585,0.00000
 915,-0.00016181,0.00028071,0.00026941,0.00002244,-0.00000032,0.0000222
 4,0.00003794,0.00007784,0.00003352,0.00001150,0.00005587,0.00000875,0.
 00006183,-0.00002995,-0.00000042,0.00000414,-0.00002868,-0.00000881,0.
 00099298,-0.00051565,0.00047412,-0.00026315,0.00009323,-0.00011446,-0.
 00105884,-0.00036461,0.00016993,0.00243895,0.00143489,-0.00050822,0.01
 990872,-0.01402137,0.00969524,0.07844235,-0.07055818,0.00490834,0.0115
 2136,-0.00364514,-0.00140907,-0.00167564,0.00071464,-0.00021662,0.0010
 0049,0.00004869,-0.00126123,-0.00107770,-0.00040450,0.00177073,0.00002
 976,0.00002987,0.00000250,0.00010072,-0.00060310,0.00006439,-0.0004399
 8,0.00011111,0.00040886,-0.00040543,-0.00025062,-0.00053156,-0.0864135
 2,0.07785582,0.00004549,0.00014660,-0.00006663,-0.00003010,0.00013703,
 -0.00009407,0.00081933,-0.00027649,-0.00009790,-0.00010302,-0.00014102
 ,0.00001255,-0.00016072,-0.00014014,0.00004269,0.00013978,0.00003089,0
 .00021760,-0.00002803,0.00078471,-0.00108897,0.00003124,-0.00011945,0.
 00018917,-0.00005402,-0.00014311,0.00030039,0.00042722,-0.00143639,0.0
 0044944,0.00000442,0.00004504,0.00001090,0.00062728,-0.00053163,-0.000
 25718,-0.00000401,0.00002505,-0.00001604,-0.00004468,-0.00008603,-0.00
 002339,-0.00004667,-0.00002619,-0.00000759,-0.00005656,0.00003761,0.00
 002465,-0.00002063,0.00003530,-0.00001378,-0.00081875,-0.00003277,-0.0
 0030331,0.00024663,0.00003909,-0.00003608,0.00069447,0.00070210,-0.000
 29817,-0.00266418,-0.00155607,0.00161009,-0.02532421,0.01606821,-0.008
 11248,-0.00552524,0.00167760,-0.04628296,0.02153947,-0.00362467,0.0076
 4238,-0.00269574,-0.00036565,-0.00090270,0.00506547,-0.00308512,-0.006
 14904,-0.00205542,0.00073180,-0.00059924,-0.00003040,-0.00004361,0.000
 01119,0.00024073,-0.00010628,0.00013617,0.00056443,-0.00037932,-0.0002
 1809,-0.00101113,0.00072193,0.00027294,0.01803917,-0.01333116,0.053296
 31,-0.00088972,0.00019488,0.00015096,0.00007892,0.00006853,-0.00004344
 ,-0.00000892,-0.00006576,-0.00007485,0.00026867,0.00009014,0.00002672,
 0.00000906,-0.00040048,-0.00046782,-0.00004799,0.00000495,-0.00001756,
 0.00031559,0.00011385,0.00007724,-0.00005109,-0.00004248,-0.00003209,-
 0.00032529,0.00010666,-0.00011576,-0.00004373,-0.00013174,-0.00001786,
 0.00001058,0.00000067,0.00000351,0.00030853,-0.00000767,0.00014262,-0.
 00008210,-0.00005930,-0.00008263,-0.00001054,-0.00002758,-0.00000477,-
 0.00001713,-0.00003135,-0.00000869,0.00000594,-0.00000609,0.00000603,-
 0.00000153,-0.00000806,-0.00001198,0.00016017,0.00015759,-0.00009035,-
 0.00007153,-0.00003564,0.00001913,0.00004785,-0.00008230,0.00005914,0.
 00019556,0.00000313,0.00011045,0.00193861,0.00452856,0.00086697,-0.138
 15018,-0.12572818,-0.03336531,0.00429005,0.00585403,0.00108374,0.00006
 067,0.00291085,0.00214934,-0.00008684,-0.00071960,-0.00020874,-0.00034
 961,-0.00000431,-0.00027925,0.00001024,0.00001356,-0.00001659,-0.00000
 900,0.00024855,0.00009129,0.00008852,-0.00000347,-0.00017047,0.0009787
 8,-0.00031771,0.00036617,-0.01424042,-0.02250022,-0.00699812,0.1451871
 3,0.00096911,0.00007706,-0.00020795,-0.00003424,-0.00008115,0.00005128
 ,-0.00009764,0.00011651,0.00003208,-0.00033802,-0.00027138,0.00005628,
 -0.00071919,0.00042477,-0.00005766,0.00001331,-0.00000538,-0.00002798,
 -0.00030602,-0.00040829,0.00023892,0.00003484,0.00010769,-0.00000922,0
 .00030767,0.00000517,-0.00001055,-0.00011494,0.00055875,-0.00010308,-0
 .00001145,-0.00002048,-0.00000679,-0.00048484,-0.00047041,0.00012487,0
 .00000456,0.00011435,0.00001613,0.00001340,0.00003591,0.00000408,0.000
 02936,0.00003109,0.00000610,-0.00000324,-0.00000186,-0.00001159,0.0000
 0452,0.00000346,0.00001468,-0.00139156,0.00021365,-0.00035237,0.000125
 39,-0.00046059,0.00035793,0.00041856,-0.00005722,0.00006390,0.00266382
 ,-0.00134855,0.00202528,-0.01201480,-0.01825350,-0.00136556,-0.1251004
 7,-0.20885971,-0.03977387,-0.00693809,-0.01052876,-0.00434971,0.000640
 91,-0.00101728,-0.00152867,-0.00039866,0.00205731,0.00142233,0.0005711
 3,0.00036153,0.00014988,-0.00006645,-0.00001522,0.00001438,0.00022557,
 0.00004344,-0.00005424,-0.00004570,0.00003532,0.00009480,-0.00071760,0
 .00085842,-0.00033396,0.00659172,0.00956146,0.00230643,0.13613133,0.22
 748712,-0.00062894,-0.00006378,0.00038571,0.00007531,0.00004799,-0.000
 03870,0.00011235,-0.00007448,-0.00006641,0.00024423,0.00015795,-0.0000
 8557,0.00038705,-0.00023087,-0.00020864,0.00011224,0.00002314,0.000011
 27,-0.00073661,-0.00026659,0.00021632,0.00012710,0.00002572,-0.0000323
 2,0.00083968,-0.00037048,0.00025418,-0.00002266,0.00051336,-0.00008969
 ,-0.00002303,0.00001401,0.00000910,0.00039102,-0.00015395,0.00007436,-
 0.00003395,-0.00003653,0.00005461,-0.00000933,-0.00002480,-0.00001588,
 0.00001586,-0.00005423,-0.00000806,-0.00002009,0.00000555,-0.00002018,
 0.00001320,0.00001424,0.00002658,0.00179788,0.00008619,0.00049307,-0.0
 0005339,0.00073992,-0.00057288,-0.00043330,0.00005015,-0.00013175,-0.0
 0221737,0.00350649,-0.00352681,0.01768949,0.02638748,-0.00009312,-0.04
 218187,-0.05439759,-0.05773370,-0.01690141,-0.01754265,-0.00044773,0.0
 0196427,-0.00576755,-0.00377601,0.00054859,0.00279987,0.00184536,0.001
 02790,0.00170049,-0.00059118,0.00008355,0.00004291,-0.00006284,-0.0000
 6712,0.00003181,-0.00020645,0.00000254,-0.00009024,-0.00000732,0.00112
 072,0.00094729,0.00168996,0.00084895,-0.00065720,-0.00042421,0.0365465
 3,0.04182189,0.06449612,0.00026418,-0.00081918,-0.00022004,-0.00041712
 ,-0.00002446,-0.00020047,0.00234618,-0.00056576,0.00025170,0.00010909,
 0.00046709,0.00009578,-0.00025665,0.00094510,0.00009777,0.00292838,0.0
 0057485,0.00035512,-0.02927866,-0.00008005,0.00538921,0.00465986,-0.00
 243763,-0.00215182,0.01689036,-0.00876200,0.00398683,0.00383976,0.0045
 3322,-0.00223850,-0.00003510,0.00088194,0.00096244,0.00071239,-0.00176
 832,-0.00145816,0.00003467,-0.00009343,0.00002527,-0.00004427,-0.00007
 153,-0.00008170,0.00002870,-0.00005885,-0.00003065,-0.00049331,0.00027
 922,-0.00049638,0.00040237,0.00049005,0.00069300,0.00294306,-0.0018571
 7,0.00161783,-0.00084382,0.00015074,-0.00032120,-0.00260006,0.00079127
 ,-0.00013406,0.00009481,0.00063713,-0.00048262,-0.00122140,0.00111562,
 -0.00059194,-0.00249711,-0.00340342,0.00004689,0.02416319,0.00018077,0
 .00568504,-0.14819285,0.15194400,-0.04361809,-0.00901069,0.00230666,-0
 .00047201,-0.00144744,-0.00925597,0.00261838,0.00012676,-0.00001398,-0
 .00000712,-0.00094893,0.00039374,0.00139006,-0.00019575,-0.00012928,-0
 .00018284,0.00031486,-0.00009265,-0.00007374,-0.00021513,0.00040056,0.
 00007610,0.00045408,-0.00038386,-0.00114933,0.13610428,-0.00066102,0.0
 0076573,0.00011118,0.00042610,0.00002257,0.00005289,-0.00247245,0.0006
 3934,0.00013648,0.00002666,-0.00038677,-0.00003974,0.00049637,-0.00103
 106,0.00002680,-0.00490983,-0.00058762,0.00000868,0.02500358,0.0066000
 9,-0.00903200,-0.00474223,0.00158174,0.00183175,-0.02452321,-0.0019854
 7,-0.00269263,-0.00326491,-0.00782974,0.00345823,0.00048178,-0.0007656
 5,-0.00097052,-0.00031804,0.00226626,0.00037820,-0.00008063,0.00004921
 ,-0.00009580,0.00005623,0.00006473,0.00013006,-0.00011877,0.00010385,0
 .00003289,0.00072759,-0.00026775,0.00072090,-0.00062474,-0.00062697,-0
 .00121512,-0.00228351,0.00251881,-0.00112786,0.00043515,-0.00068324,0.
 00031381,0.00206540,-0.00115343,0.00014864,0.00074057,-0.00030165,0.00
 080118,0.00089944,-0.00128991,0.00037516,0.00082924,0.00275208,-0.0010
 0275,-0.00921631,-0.05374724,-0.00213821,0.14500898,-0.21822098,0.0521
 6953,0.01146105,0.00511818,-0.00013584,0.00028994,0.00532183,-0.001802
 09,-0.00012802,0.00008531,0.00016413,0.00041767,0.00074148,-0.00122399
 ,0.00001777,-0.00004269,0.00001600,-0.00050145,0.00011811,0.00008564,0
 .00023799,-0.00036092,0.00032626,-0.00027187,0.00016593,0.00091865,-0.
 13112786,0.25425769,-0.00000161,-0.00051135,-0.00006187,-0.00011083,-0
 .00026335,-0.00002121,0.00017271,0.00038784,0.00033097,0.00015855,0.00
 035308,0.00002986,0.00003107,0.00052437,-0.00002850,0.00051522,0.00025
 635,-0.00015156,-0.00612963,-0.00390792,0.00500717,0.00300506,-0.00145
 023,-0.00182067,0.00616158,-0.00050584,-0.00832928,0.00065434,0.002776
 30,-0.00259403,0.00014295,0.00016291,0.00060124,-0.00036771,-0.0015292
 3,-0.00115547,0.00000772,-0.00006822,0.00002659,0.00004701,0.00007210,
 0.00000736,0.00006181,0.00006426,0.00000839,-0.00009551,0.00003951,-0.
 00020010,0.00016040,0.00005943,0.00020573,0.00100523,-0.00007968,-0.00
 059692,-0.00034167,-0.00013011,0.00013051,-0.00048685,0.00032701,0.000
 13400,-0.00034908,-0.00012719,-0.00060856,-0.00020900,0.00104284,-0.00
 018963,-0.00288659,-0.00454648,-0.00022245,0.00683595,0.00219052,0.001
 20093,-0.04004973,0.04718020,-0.02674174,-0.00267755,-0.00089742,-0.00
 179393,0.00014666,0.00221656,0.00084262,0.00007980,0.00006728,-0.00012
 860,0.00102324,-0.00061491,0.00003187,0.00010054,0.00017798,0.00027148
 ,0.00000089,0.00018064,-0.00007592,-0.00013106,0.00043995,0.00024789,0
 .00032500,-0.00023108,-0.00130615,0.03154460,-0.04258057,0.03648084,0.
 00002518,0.00006610,-0.00010153,-0.00001413,0.00006825,-0.00006296,0.0
 0023368,-0.00014183,0.00003636,-0.00003181,-0.00007041,0.00005820,-0.0
 0004613,-0.00001672,0.00007505,0.00000445,-0.00001533,0.00008975,0.000
 32726,0.00078358,-0.00063855,-0.00002810,-0.00018598,0.00006619,-0.000
 37351,-0.00007464,0.00010522,0.00004478,-0.00083819,0.00038288,0.00003
 302,0.00005937,0.00001154,0.00020477,-0.00001553,-0.00010826,-0.000011
 49,0.00000131,-0.00005556,-0.00001928,-0.00003251,-0.00000144,-0.00003
 657,0.00000484,-0.00000706,-0.00000747,0.00001665,0.00002796,-0.000014
 73,0.00001252,-0.00002243,0.00028868,-0.00009656,0.00010778,-0.0001056
 2,-0.00000696,-0.00001924,-0.00024742,0.00003924,-0.00000813,-0.000105
 03,-0.00003097,-0.00010525,0.00015651,-0.00005985,-0.00130492,-0.00090
 622,0.00286919,-0.00136648,0.00530926,0.00613872,-0.01966889,-0.001285
 31,0.00025881,-0.00027899,-0.00216254,-0.00164950,0.00348531,-0.078144
 18,-0.00848517,0.18715314,0.00001561,0.00000803,-0.00000266,0.00001759
 ,-0.00000853,0.00003517,0.00001367,0.00001853,0.00000860,0.00017883,0.
 00014112,-0.00025978,0.00019934,-0.00015106,0.00011679,-0.00002155,0.0
 0002485,0.00024005,0.00050087,0.00001148,-0.00013409,0.07636655,0.0002
 6873,0.00029522,0.00003078,0.00005352,0.00002953,0.00004702,-0.0000665
 8,0.00001112,-0.00009057,-0.00015016,-0.00023900,0.00000828,-0.0001745
 6,-0.00013997,-0.00003250,-0.00003685,0.00000391,-0.00007711,0.0004422
 1,-0.00055432,0.00047328,-0.00012747,0.00019499,-0.00001292,-0.0002539
 0,0.00022727,-0.00022480,-0.00028472,0.00043736,-0.00027361,0.00003674
 ,-0.00008149,-0.00001276,0.00003007,0.00005998,0.00017493,0.00000653,0
 .00007425,-0.00002297,0.00000055,-0.00000395,-0.00001200,0.00001724,-0
 .00000499,-0.00001173,0.00000150,-0.00001269,-0.00000516,-0.00000338,-
 0.00001197,-0.00000134,-0.00007023,-0.00014060,0.00014163,0.00007624,0
 .00008501,-0.00008105,0.00003625,0.00005338,-0.00007166,-0.00004983,-0
 .00000088,-0.00009702,0.00009654,0.00017202,-0.00007307,0.00161651,0.0
 0072100,0.00038258,-0.00401246,-0.00456080,0.02581498,0.00098060,-0.00
 268101,-0.00180226,-0.00106082,-0.00055442,-0.00261116,0.00196980,-0.0
 1134225,0.01903289,-0.00001485,-0.00001786,0.00003583,-0.00005901,0.00
 000361,0.00010302,0.00000318,0.00000235,-0.00000998,-0.00003498,-0.000
 01847,-0.00001049,-0.00010529,-0.00001470,-0.00009736,-0.00013238,0.00
 014036,0.00047671,-0.00003429,-0.00049204,0.00022536,0.00052244,0.0187
 5167,-0.00047548,-0.00018276,-0.00005777,-0.00004465,-0.00002021,-0.00
 009711,0.00005543,-0.00004676,0.00013889,0.00021065,0.00020852,0.00003
 552,0.00030767,0.00000629,0.00007734,0.00002568,0.00002362,0.00000817,
 -0.00063927,0.00099469,0.00008754,0.00021271,-0.00048467,-0.00023800,0
 .00074211,-0.00075695,0.00014142,0.00053737,-0.00107139,-0.00022698,-0
 .00000024,0.00008710,0.00013486,0.00006073,0.00004693,-0.00023647,-0.0
 0005337,-0.00006356,-0.00004279,-0.00000932,-0.00000578,0.00002541,-0.
 00004702,0.00002241,0.00002529,0.00000638,0.00000925,-0.00000138,0.000
 02234,0.00000891,0.00000928,0.00018931,0.00030877,-0.00022475,-0.00017
 344,-0.00020883,0.00013745,-0.00010506,-0.00012513,0.00012382,0.000115
 58,-0.00003135,0.00009196,-0.00011703,-0.00074714,-0.00042816,-0.00142
 074,0.00302712,-0.00007946,0.00536466,0.00542608,-0.02508570,0.0002940
 0,-0.00472390,0.00184311,0.00398620,-0.00355357,0.00362067,0.16041834,
 0.04100698,-0.45228847,0.00002904,0.00005143,-0.00004174,0.00008632,0.
 00002854,-0.00013409,-0.00000305,0.00001365,0.00000383,0.00002082,0.00
 020148,-0.00014193,0.00010833,-0.00002397,0.00042945,-0.00005146,-0.00
 025863,-0.00003751,-0.00093873,0.00094243,-0.00018267,-0.16771803,-0.0
 4140993,0.47190606,0.00134760,-0.00101383,-0.00037928,-0.00006016,0.00
 049443,-0.00023695,0.00162616,-0.00086424,-0.00037448,-0.00024410,0.00
 018240,0.00014193,-0.00107832,0.00088220,0.00003312,-0.00014048,-0.000
 89695,0.00173140,0.01461114,-0.00145197,-0.01393825,0.00027857,-0.0087
 9218,0.00387809,-0.00723066,0.00256878,0.00198876,-0.10969057,0.148543
 54,0.02985227,0.00055273,0.00096661,0.00051795,0.00020365,-0.00057673,
 0.00051720,0.00007768,-0.00004399,0.00004637,-0.00016099,-0.00016596,0
 .00002956,-0.00051648,-0.00032613,-0.00035369,0.00008045,0.00023588,0.
 00056798,-0.00033070,0.00023415,-0.00026866,0.00127732,-0.00097555,0.0
 0080492,-0.00034294,0.00022933,-0.00022331,-0.00125933,0.00033622,-0.0
 0011653,-0.00045727,0.00004940,-0.00037823,-0.00047557,0.00080451,-0.0
 0072784,0.00237764,-0.00065772,0.00066922,-0.02483015,0.00105791,0.002
 96868,0.00343664,0.00407880,-0.00139211,0.01153073,-0.00941837,-0.0069
 9667,0.00367271,-0.00142285,0.00136771,0.00005694,-0.00001694,-0.00000
 985,-0.00009170,-0.00008288,0.00029173,-0.00001167,0.00000589,0.000023
 85,0.00029835,0.00002038,-0.00009636,0.00026907,0.00000931,-0.00100641
 ,-0.00000179,0.00039671,0.00028994,0.00078049,-0.00438814,0.00179058,-
 0.00035891,0.00051314,-0.00099675,0.10480393,-0.00092203,0.00099146,-0
 .00027497,0.00067638,0.00015448,-0.00005747,-0.00223026,0.00132243,0.0
 0052602,0.00003311,-0.00050543,0.00006255,0.00057788,-0.00124793,0.000
 21874,-0.00033013,0.00192441,-0.00363473,-0.00566840,-0.04470025,0.028
 11931,0.00031571,0.00551891,-0.00118140,0.01051393,0.00291217,-0.00658
 659,0.14130854,-0.26741566,-0.03540997,-0.00009652,-0.00109960,-0.0006
 2889,0.00014080,0.00175304,-0.00003674,-0.00011606,0.00002109,-0.00019
 293,0.00000636,0.00001861,0.00022961,-0.00033744,0.00045525,0.00010328
 ,-0.00004325,-0.00044645,-0.00106127,0.00054019,-0.00035191,0.00020626
 ,-0.00175374,0.00130600,-0.00087171,0.00045945,-0.00032947,0.00023033,
 0.00158583,-0.00060266,0.00009442,0.00069250,0.00013551,0.00051539,0.0
 0059294,-0.00128942,0.00095780,-0.00449856,0.00085757,-0.00120877,0.02
 701360,0.00818804,0.00003742,-0.00412801,-0.00945467,0.00059279,-0.023
 07433,-0.00051766,0.00754392,-0.00575960,0.00140734,-0.00173590,-0.000
 09899,0.00003205,0.00008825,-0.00000970,0.00015233,-0.00027703,-0.0000
 1637,-0.00004354,-0.00006208,-0.00031491,-0.00003627,0.00015162,-0.000
 41516,0.00015059,0.00170678,0.00014891,-0.00059950,-0.00058087,-0.0051
 1225,0.00660022,-0.00130093,0.00083472,-0.00039160,0.00130031,-0.13051
 515,0.29513052,-0.00056099,-0.00055011,-0.00022782,-0.00013720,-0.0000
 5364,-0.00047219,0.00020600,0.00000092,0.00062237,0.00027688,0.0003298
 2,0.00004525,0.00024524,0.00010843,0.00011614,0.00065311,0.00122811,-0
 .00315233,-0.00966607,0.01947252,0.00160988,0.00097514,0.00172717,0.00
 059231,0.00070056,-0.00192448,-0.00147761,0.02998719,-0.03565190,-0.02
 864988,-0.00002186,0.00010458,-0.00035354,0.00042423,0.00009476,-0.000
 74794,-0.00005578,-0.00009024,-0.00003952,-0.00004767,-0.00005080,0.00
 016079,-0.00043495,-0.00004781,0.00017810,-0.00005637,-0.00010784,-0.0
 0061634,0.00033298,-0.00004338,0.00034877,0.00026968,0.00025094,-0.000
 13932,-0.00021144,-0.00022865,0.00012024,-0.00025598,-0.00013713,0.000
 10464,0.00019190,0.00013388,0.00004733,-0.00021949,-0.00004423,0.00023
 560,-0.00007579,-0.00021599,-0.00000141,0.00709419,0.00170039,0.000586
 59,-0.00141162,-0.00166299,-0.00074061,-0.00502279,0.00140622,-0.00596
 513,-0.00297882,0.00092191,-0.00156154,0.00002232,0.00006271,-0.000026
 85,0.00002365,0.00001121,-0.00004082,-0.00004105,-0.00001974,0.0000082
 6,-0.00003767,-0.00003655,0.00000193,-0.00006225,0.00001095,0.00009802
 ,0.00003292,-0.00011833,-0.00007354,0.00001340,0.00090764,0.00065181,-
 0.00013572,0.00009420,0.00070489,-0.02001588,0.01241745,0.03805345\\-0
 .00001086,-0.00000261,0.00000536,-0.00000564,-0.00000035,-0.00001257,-
 0.00000170,0.00000609,0.00000849,0.00000388,0.00000664,-0.00000399,0.0
 0000629,0.00000016,0.00000273,0.00000407,-0.00000820,-0.00000495,-0.00
 001056,-0.00000069,0.00000215,0.00000481,-0.00000370,0.00000090,-0.000
 00122,0.00000444,0.00000278,0.00000516,0.00001261,0.00000653,-0.000001
 02,0.00000218,-0.00000024,0.00000259,0.00000045,-0.00000825,-0.0000006
 5,0.00000101,-0.00000018,0.00000030,0.00000212,0.00000251,0.00000166,0
 .00000120,0.00000026,0.00000395,0.00000281,0.00000122,0.00000104,0.000
 00214,0.00000077,0.00000299,0.00000009,0.00000501,0.00000151,-0.000001
 16,0.00000082,-0.00000125,-0.00000032,-0.00000156,-0.00000366,0.000000
 21,-0.00000071,0.00000281,-0.00000319,-0.00000556,-0.00000659,0.000006
 57,-0.00000382,0.00001078,0.00000802,0.00000161,0.00000735,-0.00002292
 ,0.00000413,-0.00000296,-0.00000483,0.00000205,-0.00000120,-0.00000652
 ,-0.00000007,0.00000112,-0.00000082,0.00000117,0.00000122,-0.00000121,
 0.00000047,0.00000049,-0.00000125,-0.00000009,0.00000173,-0.00000052,0
 .00000090,-0.00000083,-0.00000138,0.00000169,-0.00000134,-0.00000111,-
 0.00000188,-0.00001010,0.00001051,-0.00000302,-0.00000213,-0.00000030,
 -0.00000003,-0.00000205,-0.00000619,-0.00000460\\\@
 The archive entry for this job was punched.


 THE ONLY DIFFERENCE BETWEEN ECCENTRICS AND JOGGERS
 IS THAT JOGGERS WEAR SWEATBANDS WHEN THEY RUN IN THE RAIN.
 Job cpu time:       2 days 13 hours 47 minutes 11.3 seconds.
 Elapsed time:       0 days  1 hours 18 minutes 18.6 seconds.
 File lengths (MBytes):  RWF=   3435 Int=      0 D2E=      0 Chk=     65 Scr=      1
 Normal termination of Gaussian 16 at Fri Dec 20 02:19:56 2024.
